   2   2   0   0
  0.3165331E+02  0.2468133E-09  0.2468133E-09  0.1200000E-08  0.5000000E-15
  1.000000000000000E-004
  CAR 
 unknown system                          
     42.96397347   -136.86385550  301     -1.75810542      1.00000000
   -136.864  0.0000E+00  0.0000E+00
   -136.264  0.0000E+00  0.0000E+00
   -135.665  0.0000E+00  0.0000E+00
   -135.066  0.0000E+00  0.0000E+00
   -134.466  0.0000E+00  0.0000E+00
   -133.867  0.0000E+00  0.0000E+00
   -133.267  0.0000E+00  0.0000E+00
   -132.668  0.0000E+00  0.0000E+00
   -132.068  0.0000E+00  0.0000E+00
   -131.469  0.0000E+00  0.0000E+00
   -130.870  0.0000E+00  0.0000E+00
   -130.270  0.0000E+00  0.0000E+00
   -129.671  0.0000E+00  0.0000E+00
   -129.071  0.0000E+00  0.0000E+00
   -128.472  0.0000E+00  0.0000E+00
   -127.872  0.0000E+00  0.0000E+00
   -127.273  0.0000E+00  0.0000E+00
   -126.674  0.0000E+00  0.0000E+00
   -126.074  0.0000E+00  0.0000E+00
   -125.475  0.0000E+00  0.0000E+00
   -124.875  0.0000E+00  0.0000E+00
   -124.276  0.0000E+00  0.0000E+00
   -123.676  0.0000E+00  0.0000E+00
   -123.077  0.0000E+00  0.0000E+00
   -122.478  0.0000E+00  0.0000E+00
   -121.878  0.0000E+00  0.0000E+00
   -121.279  0.0000E+00  0.0000E+00
   -120.679  0.0000E+00  0.0000E+00
   -120.080  0.0000E+00  0.0000E+00
   -119.480  0.0000E+00  0.0000E+00
   -118.881  0.0000E+00  0.0000E+00
   -118.282  0.0000E+00  0.0000E+00
   -117.682  0.0000E+00  0.0000E+00
   -117.083  0.0000E+00  0.0000E+00
   -116.483  0.0000E+00  0.0000E+00
   -115.884  0.0000E+00  0.0000E+00
   -115.285  0.0000E+00  0.0000E+00
   -114.685  0.0000E+00  0.0000E+00
   -114.086  0.0000E+00  0.0000E+00
   -113.486  0.0000E+00  0.0000E+00
   -112.887  0.0000E+00  0.0000E+00
   -112.287  0.0000E+00  0.0000E+00
   -111.688  0.0000E+00  0.0000E+00
   -111.089  0.0000E+00  0.0000E+00
   -110.489  0.0000E+00  0.0000E+00
   -109.890  0.0000E+00  0.0000E+00
   -109.290  0.0000E+00  0.0000E+00
   -108.691  0.0000E+00  0.0000E+00
   -108.091  0.0000E+00  0.0000E+00
   -107.492  0.0000E+00  0.0000E+00
   -106.893  0.0000E+00  0.0000E+00
   -106.293  0.0000E+00  0.0000E+00
   -105.694  0.0000E+00  0.0000E+00
   -105.094  0.0000E+00  0.0000E+00
   -104.495  0.0000E+00  0.0000E+00
   -103.895  0.0000E+00  0.0000E+00
   -103.296  0.0000E+00  0.0000E+00
   -102.697  0.0000E+00  0.0000E+00
   -102.097  0.0000E+00  0.0000E+00
   -101.498  0.0000E+00  0.0000E+00
   -100.898  0.0000E+00  0.0000E+00
   -100.299  0.0000E+00  0.0000E+00
    -99.699  0.0000E+00  0.0000E+00
    -99.100  0.0000E+00  0.0000E+00
    -98.501  0.0000E+00  0.0000E+00
    -97.901  0.0000E+00  0.0000E+00
    -97.302  0.0000E+00  0.0000E+00
    -96.702  0.0000E+00  0.0000E+00
    -96.103  0.0000E+00  0.0000E+00
    -95.503  0.0000E+00  0.0000E+00
    -94.904  0.0000E+00  0.0000E+00
    -94.305  0.0000E+00  0.0000E+00
    -93.705  0.0000E+00  0.0000E+00
    -93.106  0.0000E+00  0.0000E+00
    -92.506  0.0000E+00  0.0000E+00
    -91.907  0.0000E+00  0.0000E+00
    -91.307  0.0000E+00  0.0000E+00
    -90.708  0.0000E+00  0.0000E+00
    -90.109  0.0000E+00  0.0000E+00
    -89.509  0.0000E+00  0.0000E+00
    -88.910  0.0000E+00  0.0000E+00
    -88.310  0.0000E+00  0.0000E+00
    -87.711  0.0000E+00  0.0000E+00
    -87.111  0.0000E+00  0.0000E+00
    -86.512  0.0000E+00  0.0000E+00
    -85.913  0.0000E+00  0.0000E+00
    -85.313  0.0000E+00  0.0000E+00
    -84.714  0.0000E+00  0.0000E+00
    -84.114  0.0000E+00  0.0000E+00
    -83.515  0.0000E+00  0.0000E+00
    -82.916  0.0000E+00  0.0000E+00
    -82.316  0.0000E+00  0.0000E+00
    -81.717  0.0000E+00  0.0000E+00
    -81.117  0.0000E+00  0.0000E+00
    -80.518  0.0000E+00  0.0000E+00
    -79.918  0.0000E+00  0.0000E+00
    -79.319  0.0000E+00  0.0000E+00
    -78.720  0.0000E+00  0.0000E+00
    -78.120  0.0000E+00  0.0000E+00
    -77.521  0.0000E+00  0.0000E+00
    -76.921  0.0000E+00  0.0000E+00
    -76.322  0.0000E+00  0.0000E+00
    -75.722  0.0000E+00  0.0000E+00
    -75.123  0.0000E+00  0.0000E+00
    -74.524  0.0000E+00  0.0000E+00
    -73.924  0.0000E+00  0.0000E+00
    -73.325  0.0000E+00  0.0000E+00
    -72.725  0.0000E+00  0.0000E+00
    -72.126  0.0000E+00  0.0000E+00
    -71.526  0.0000E+00  0.0000E+00
    -70.927  0.0000E+00  0.0000E+00
    -70.328  0.0000E+00  0.0000E+00
    -69.728  0.0000E+00  0.0000E+00
    -69.129  0.0000E+00  0.0000E+00
    -68.529  0.0000E+00  0.0000E+00
    -67.930  0.0000E+00  0.0000E+00
    -67.330  0.0000E+00  0.0000E+00
    -66.731  0.0000E+00  0.0000E+00
    -66.132  0.0000E+00  0.0000E+00
    -65.532  0.0000E+00  0.0000E+00
    -64.933  0.0000E+00  0.0000E+00
    -64.333  0.0000E+00  0.0000E+00
    -63.734  0.0000E+00  0.0000E+00
    -63.134  0.0000E+00  0.0000E+00
    -62.535  0.0000E+00  0.0000E+00
    -61.936  0.0000E+00  0.0000E+00
    -61.336  0.0000E+00  0.0000E+00
    -60.737  0.0000E+00  0.0000E+00
    -60.137  0.0000E+00  0.0000E+00
    -59.538  0.0000E+00  0.0000E+00
    -58.938  0.0000E+00  0.0000E+00
    -58.339  0.0000E+00  0.0000E+00
    -57.740  0.0000E+00  0.0000E+00
    -57.140  0.0000E+00  0.0000E+00
    -56.541  0.0000E+00  0.0000E+00
    -55.941  0.0000E+00  0.0000E+00
    -55.342  0.0000E+00  0.0000E+00
    -54.742  0.0000E+00  0.0000E+00
    -54.143  0.0000E+00  0.0000E+00
    -53.544  0.0000E+00  0.0000E+00
    -52.944  0.0000E+00  0.0000E+00
    -52.345  0.0000E+00  0.0000E+00
    -51.745  0.0000E+00  0.0000E+00
    -51.146  0.0000E+00  0.0000E+00
    -50.546  0.0000E+00  0.0000E+00
    -49.947  0.0000E+00  0.0000E+00
    -49.348  0.0000E+00  0.0000E+00
    -48.748  0.0000E+00  0.0000E+00
    -48.149  0.0000E+00  0.0000E+00
    -47.549  0.0000E+00  0.0000E+00
    -46.950  0.0000E+00  0.0000E+00
    -46.351  0.0000E+00  0.0000E+00
    -45.751  0.0000E+00  0.0000E+00
    -45.152  0.0000E+00  0.0000E+00
    -44.552  0.0000E+00  0.0000E+00
    -43.953  0.0000E+00  0.0000E+00
    -43.353  0.0000E+00  0.0000E+00
    -42.754  0.0000E+00  0.0000E+00
    -42.155  0.0000E+00  0.0000E+00
    -41.555  0.0000E+00  0.0000E+00
    -40.956  0.0000E+00  0.0000E+00
    -40.356  0.0000E+00  0.0000E+00
    -39.757  0.0000E+00  0.0000E+00
    -39.157  0.0000E+00  0.0000E+00
    -38.558  0.0000E+00  0.0000E+00
    -37.959  0.0000E+00  0.0000E+00
    -37.359  0.0000E+00  0.0000E+00
    -36.760  0.0000E+00  0.0000E+00
    -36.160  0.0000E+00  0.0000E+00
    -35.561  0.0000E+00  0.0000E+00
    -34.961  0.0000E+00  0.0000E+00
    -34.362  0.0000E+00  0.0000E+00
    -33.763  0.0000E+00  0.0000E+00
    -33.163  0.0000E+00  0.0000E+00
    -32.564  0.0000E+00  0.0000E+00
    -31.964  0.0000E+00  0.0000E+00
    -31.365  0.0000E+00  0.0000E+00
    -30.765  0.0000E+00  0.0000E+00
    -30.166  0.0000E+00  0.0000E+00
    -29.567  0.0000E+00  0.0000E+00
    -28.967  0.0000E+00  0.0000E+00
    -28.368  0.0000E+00  0.0000E+00
    -27.768  0.0000E+00  0.0000E+00
    -27.169  0.0000E+00  0.0000E+00
    -26.569  0.0000E+00  0.0000E+00
    -25.970  0.0000E+00  0.0000E+00
    -25.371  0.0000E+00  0.0000E+00
    -24.771  0.0000E+00  0.0000E+00
    -24.172  0.0000E+00  0.0000E+00
    -23.572  0.0000E+00  0.0000E+00
    -22.973  0.0000E+00  0.0000E+00
    -22.373  0.0000E+00  0.0000E+00
    -21.774  0.0000E+00  0.0000E+00
    -21.175  0.4253E-01  0.2549E-01
    -20.575  0.2300E+00  0.2181E+00
    -19.976  0.1856E+00  0.3767E+00
    -19.376  0.1853E+00  0.5617E+00
    -18.777  0.1236E+00  0.7470E+00
    -18.177  0.1887E+00  0.9711E+00
    -17.578  0.2868E+00  0.1178E+01
    -16.979  0.1553E+00  0.1321E+01
    -16.379  0.1854E+00  0.1562E+01
    -15.780  0.3956E+00  0.1873E+01
    -15.180  0.6548E-01  0.1916E+01
    -14.581  0.2052E+00  0.2111E+01
    -13.982  0.3054E+00  0.2300E+01
    -13.382  0.2366E+00  0.2580E+01
    -12.783  0.2235E+00  0.2720E+01
    -12.183  0.1442E+00  0.2895E+01
    -11.584  0.2472E+00  0.3117E+01
    -10.984  0.2163E+00  0.3321E+01
    -10.385  0.3707E+00  0.3636E+01
     -9.786  0.4312E+00  0.3894E+01
     -9.186  0.3087E+00  0.4117E+01
     -8.587  0.5902E+00  0.4625E+01
     -7.987  0.7587E+00  0.5171E+01
     -7.388  0.4928E+00  0.5734E+01
     -6.788  0.4563E+00  0.6119E+01
     -6.189  0.5592E+00  0.6514E+01
     -5.590  0.4182E+00  0.6837E+01
     -4.990  0.4383E+00  0.7182E+01
     -4.391  0.2863E+00  0.7462E+01
     -3.791  0.2127E+00  0.7689E+01
     -3.192  0.1854E+00  0.7877E+01
     -2.592  0.1196E+00  0.7985E+01
     -1.993  0.6315E-12  0.7988E+01
     -1.394  0.4119E-01  0.8012E+01
     -0.794  0.1230E+00  0.8086E+01
     -0.195  0.3120E-01  0.8142E+01
      0.405  0.2902E+00  0.8501E+01
      1.004  0.2516E+00  0.8700E+01
      1.604  0.1804E+00  0.8880E+01
      2.203  0.3455E+00  0.9170E+01
      2.802  0.2486E+00  0.9445E+01
      3.402  0.4873E+00  0.9891E+01
      4.001  0.4924E+00  0.1034E+02
      4.601  0.6228E+00  0.1087E+02
      5.200  0.3010E+00  0.1127E+02
      5.800  0.7394E+00  0.1197E+02
      6.399  0.1172E+01  0.1284E+02
      6.998  0.1243E+01  0.1391E+02
      7.598  0.1092E+01  0.1489E+02
      8.197  0.7864E+00  0.1571E+02
      8.797  0.1078E+01  0.1689E+02
      9.396  0.1197E+01  0.1786E+02
      9.996  0.1435E+01  0.1904E+02
     10.595  0.7194E+00  0.1976E+02
     11.194  0.1463E+01  0.2103E+02
     11.794  0.1133E+01  0.2230E+02
     12.393  0.6170E+00  0.2286E+02
     12.993  0.1199E+01  0.2391E+02
     13.592  0.1192E+01  0.2499E+02
     14.192  0.1492E+01  0.2609E+02
     14.791  0.1023E+01  0.2704E+02
     15.390  0.1254E+01  0.2858E+02
     15.990  0.1055E+01  0.2949E+02
     16.589  0.1139E+01  0.3050E+02
     17.189  0.1159E+01  0.3171E+02
     17.788  0.7683E+00  0.3250E+02
     18.388  0.1414E+01  0.3406E+02
     18.987  0.1120E+01  0.3512E+02
     19.586  0.1082E+01  0.3636E+02
     20.186  0.1202E+01  0.3767E+02
     20.785  0.1472E+01  0.3898E+02
     21.385  0.1822E+01  0.4054E+02
     21.984  0.1047E+01  0.4170E+02
     22.583  0.1339E+01  0.4302E+02
     23.183  0.1555E+01  0.4433E+02
     23.782  0.1324E+01  0.4566E+02
     24.382  0.1594E+01  0.4736E+02
     24.981  0.1373E+01  0.4867E+02
     25.581  0.2092E+01  0.5040E+02
     26.180  0.1588E+01  0.5188E+02
     26.779  0.1896E+01  0.5314E+02
     27.379  0.1522E+01  0.5446E+02
     27.978  0.1521E+01  0.5548E+02
     28.578  0.1752E+01  0.5686E+02
     29.177  0.9948E+00  0.5765E+02
     29.777  0.6569E+00  0.5815E+02
     30.376  0.2741E+00  0.5849E+02
     30.975  0.5701E+00  0.5897E+02
     31.575  0.2484E+00  0.5918E+02
     32.174  0.3617E+00  0.5954E+02
     32.774  0.3239E+00  0.5974E+02
     33.373  0.4501E-02  0.5985E+02
     33.973  0.9066E-01  0.5991E+02
     34.572  0.7209E-01  0.5999E+02
     35.171  0.1030E-01  0.6000E+02
     35.771  0.0000E+00  0.6000E+02
     36.370  0.0000E+00  0.6000E+02
     36.970  0.0000E+00  0.6000E+02
     37.569  0.0000E+00  0.6000E+02
     38.169  0.0000E+00  0.6000E+02
     38.768  0.0000E+00  0.6000E+02
     39.367  0.0000E+00  0.6000E+02
     39.967  0.0000E+00  0.6000E+02
     40.566  0.0000E+00  0.6000E+02
     41.166  0.0000E+00  0.6000E+02
     41.765  0.0000E+00  0.6000E+02
     42.365  0.0000E+00  0.6000E+02
     42.964  0.0000E+00  0.6000E+02
