    2    2    1    1
  0.3165331E+02  0.2468133E-09  0.2468133E-09  0.1200000E-08  0.5000000E-15
  1.000000000000000E-004
  CAR 
 unknown system                          
      8    169     30
 
  0.0000000E+00  0.0000000E+00  0.0000000E+00  0.3086420E-02
      1        -21.249637   1.000000
      2         -9.355319   1.000000
      3         -4.787276   1.000000
      4         -4.787273   1.000000
      5          1.463503   0.000000
      6          2.604907   0.000000
      7          3.462636   0.000000
      8          6.546387   0.000000
      9          6.546388   0.000000
     10          6.586322   0.000000
     11          7.829372   0.000000
     12          9.627199   0.000000
     13         10.684234   0.000000
     14         12.818830   0.000000
     15         14.650983   0.000000
     16         20.703188   0.000000
     17         20.999721   0.000000
     18         23.737284   0.000000
     19         26.393559   0.000000
     20         26.393560   0.000000
     21         29.052754   0.000000
     22         29.806043   0.000000
     23         29.806044   0.000000
     24         33.400631   0.000000
     25         33.400636   0.000000
     26         33.677858   0.000000
     27         33.893786   0.000000
     28         33.893791   0.000000
     29         34.364983   0.000000
     30         34.789953   0.000000
 
  0.5555556E-01  0.0000000E+00  0.0000000E+00  0.1851852E-01
      1        -21.176786   1.000000
      2         -9.268402   1.000000
      3         -5.084934   1.000000
      4         -4.943211   1.000000
      5          1.562515   0.000000
      6          2.704042   0.000000
      7          3.562128   0.000000
      8          6.582079   0.000000
      9          6.683013   0.000000
     10          6.860851   0.000000
     11          7.931379   0.000000
     12          9.374310   0.000000
     13         10.816023   0.000000
     14         12.907006   0.000000
     15         14.748471   0.000000
     16         20.938794   0.000000
     17         21.030692   0.000000
     18         23.830713   0.000000
     19         25.651484   0.000000
     20         25.716474   0.000000
     21         28.177891   0.000000
     22         30.565479   0.000000
     23         30.655119   0.000000
     24         31.227424   0.000000
     25         31.948621   0.000000
     26         32.408200   0.000000
     27         32.535101   0.000000
     28         32.852343   0.000000
     29         33.905203   0.000000
     30         34.304889   0.000000
 
  0.1111111E+00  0.0000000E+00  0.0000000E+00  0.1851852E-01
      1        -20.958569   1.000000
      2         -9.008635   1.000000
      3         -5.902219   1.000000
      4         -5.357469   1.000000
      5          1.859593   0.000000
      6          3.001093   0.000000
      7          3.860696   0.000000
      8          6.616594   0.000000
      9          6.971940   0.000000
     10          7.746906   0.000000
     11          8.232292   0.000000
     12          8.655515   0.000000
     13         11.241370   0.000000
     14         13.167587   0.000000
     15         15.038613   0.000000
     16         21.007336   0.000000
     17         21.560917   0.000000
     18         24.005966   0.000000
     19         24.116764   0.000000
     20         24.503561   0.000000
     21         27.435587   0.000000
     22         28.247030   0.000000
     23         29.246454   0.000000
     24         29.396889   0.000000
     25         30.460302   0.000000
     26         31.329400   0.000000
     27         31.813983   0.000000
     28         32.125038   0.000000
     29         32.799972   0.000000
     30         32.961834   0.000000
 
  0.1666667E+00  0.0000000E+00  0.0000000E+00  0.1851852E-01
      1        -20.596057   1.000000
      2         -8.579233   1.000000
      3         -7.075500   1.000000
      4         -5.914919   1.000000
      5          2.354583   0.000000
      6          3.494648   0.000000
      7          4.358119   0.000000
      8          6.549868   0.000000
      9          7.413172   0.000000
     10          7.606159   0.000000
     11          8.723419   0.000000
     12          9.076770   0.000000
     13         11.965674   0.000000
     14         13.588247   0.000000
     15         15.516163   0.000000
     16         20.428910   0.000000
     17         22.209706   0.000000
     18         22.955568   0.000000
     19         23.312215   0.000000
     20         24.498219   0.000000
     21         24.748098   0.000000
     22         26.241830   0.000000
     23         26.417911   0.000000
     24         28.507908   0.000000
     25         29.157709   0.000000
     26         30.000445   0.000000
     27         30.642321   0.000000
     28         30.714343   0.000000
     29         31.429158   0.000000
     30         31.486230   0.000000
 
  0.2222222E+00  0.0000000E+00  0.0000000E+00  0.1851852E-01
      1        -20.091120   1.000000
      2         -8.448354   1.000000
      3         -7.986509   1.000000
      4         -6.507473   1.000000
      5          3.046750   0.000000
      6          4.178448   0.000000
      7          5.052374   0.000000
      8          6.214324   0.000000
      9          6.381190   0.000000
     10          8.132731   0.000000
     11          9.402992   0.000000
     12         10.717585   0.000000
     13         12.878217   0.000000
     14         14.138967   0.000000
     15         16.174334   0.000000
     16         19.157597   0.000000
     17         21.181754   0.000000
     18         22.263127   0.000000
     19         22.414745   0.000000
     20         22.953242   0.000000
     21         24.096079   0.000000
     22         24.236579   0.000000
     23         25.448828   0.000000
     24         27.202656   0.000000
     25         27.903973   0.000000
     26         28.046787   0.000000
     27         29.136907   0.000000
     28         29.142598   0.000000
     29         30.336863   0.000000
     30         30.370560   0.000000
 
  0.2777778E+00  0.0000000E+00  0.0000000E+00  0.1851852E-01
      1        -19.446969   1.000000
      2         -9.906587   1.000000
      3         -7.242183   1.000000
      4         -7.059350   1.000000
      5          3.934283   0.000000
      6          4.614894   0.000000
      7          5.166240   0.000000
      8          5.906402   0.000000
      9          6.203653   0.000000
     10          8.984573   0.000000
     11         10.271510   0.000000
     12         12.548494   0.000000
     13         13.744773   0.000000
     14         14.729843   0.000000
     15         16.999746   0.000000
     16         17.795647   0.000000
     17         18.886255   0.000000
     18         20.675335   0.000000
     19         20.691838   0.000000
     20         21.389617   0.000000
     21         23.440493   0.000000
     22         23.933348   0.000000
     23         25.573105   0.000000
     24         25.597017   0.000000
     25         26.633474   0.000000
     26         27.127458   0.000000
     27         28.227297   0.000000
     28         28.306192   0.000000
     29         29.436889   0.000000
     30         29.452963   0.000000
 
  0.3333333E+00  0.0000000E+00  0.0000000E+00  0.1851852E-01
      1        -18.668547   1.000000
      2        -11.373138   1.000000
      3         -7.523074   1.000000
      4         -6.369186   1.000000
      5          3.137536   0.000000
      6          5.009988   0.000000
      7          5.930720   0.000000
      8          6.178708   0.000000
      9          7.065601   0.000000
     10         10.008240   0.000000
     11         11.325826   0.000000
     12         14.006116   0.000000
     13         14.440200   0.000000
     14         14.969268   0.000000
     15         16.657182   0.000000
     16         16.916473   0.000000
     17         17.962281   0.000000
     18         18.652447   0.000000
     19         18.982699   0.000000
     20         20.704039   0.000000
     21         22.107909   0.000000
     22         22.511609   0.000000
     23         25.089866   0.000000
     24         25.439536   0.000000
     25         26.396880   0.000000
     26         27.080752   0.000000
     27         27.288613   0.000000
     28         28.039711   0.000000
     29         28.732192   0.000000
     30         29.180026   0.000000
 
  0.3888889E+00  0.0000000E+00  0.0000000E+00  0.1851852E-01
      1        -17.765784   1.000000
      2        -12.793137   1.000000
      3         -7.870144   1.000000
      4         -5.419374   1.000000
      5          1.669236   0.000000
      6          5.723930   0.000000
      7          6.323145   0.000000
      8          7.439385   0.000000
      9          8.350029   0.000000
     10         11.170076   0.000000
     11         12.549950   0.000000
     12         12.919138   0.000000
     13         13.952487   0.000000
     14         15.219821   0.000000
     15         16.120610   0.000000
     16         16.211024   0.000000
     17         17.603962   0.000000
     18         18.081633   0.000000
     19         19.065481   0.000000
     20         20.211860   0.000000
     21         20.791621   0.000000
     22         20.949802   0.000000
     23         24.820047   0.000000
     24         25.191813   0.000000
     25         25.850394   0.000000
     26         26.692480   0.000000
     27         26.814777   0.000000
     28         27.630794   0.000000
     29         28.206492   0.000000
     30         28.228737   0.000000
 
  0.4444444E+00  0.0000000E+00  0.0000000E+00  0.1851852E-01
      1        -16.769597   1.000000
      2        -14.109267   1.000000
      3         -8.084057   1.000000
      4         -4.535248   1.000000
      5          0.455149   0.000000
      6          5.629403   0.000000
      7          7.766598   0.000000
      8          8.877258   0.000000
      9          9.830530   0.000000
     10         11.163157   0.000000
     11         12.000004   0.000000
     12         12.719290   0.000000
     13         13.324325   0.000000
     14         13.952155   0.000000
     15         15.338208   0.000000
     16         16.821071   0.000000
     17         17.565361   0.000000
     18         17.697226   0.000000
     19         19.681708   0.000000
     20         19.915734   0.000000
     21         20.493417   0.000000
     22         20.732452   0.000000
     23         23.980296   0.000000
     24         24.174907   0.000000
     25         25.492631   0.000000
     26         26.131058   0.000000
     27         26.740948   0.000000
     28         27.032290   0.000000
     29         27.878618   0.000000
     30         28.343595   0.000000
 
  0.5000000E+00  0.0000000E+00  0.0000000E+00  0.9259259E-02
      1        -16.019510   1.000000
      2        -14.967461   1.000000
      3         -8.156247   1.000000
      4         -4.112393   1.000000
      5         -0.080615   0.000000
      6          5.592885   0.000000
      7          9.323594   0.000000
      8          9.470434   0.000000
      9         10.325176   0.000000
     10         10.623870   0.000000
     11         11.474388   0.000000
     12         11.524477   0.000000
     13         13.454823   0.000000
     14         14.552616   0.000000
     15         15.372455   0.000000
     16         15.508435   0.000000
     17         17.511581   0.000000
     18         18.094927   0.000000
     19         19.779334   0.000000
     20         19.816904   0.000000
     21         20.737067   0.000000
     22         21.244496   0.000000
     23         23.286924   0.000000
     24         23.619892   0.000000
     25         25.361286   0.000000
     26         25.856330   0.000000
     27         26.509018   0.000000
     28         27.059364   0.000000
     29         27.764599   0.000000
     30         28.245564   0.000000
 
  0.1111111E+00  0.5555556E-01  0.0000000E+00  0.1851852E-01
      1        -21.031266   1.000000
      2         -9.095057   1.000000
      3         -5.615564   1.000000
      4         -5.255408   1.000000
      5          1.760586   0.000000
      6          2.902149   0.000000
      7          3.761207   0.000000
      8          6.691222   0.000000
      9          6.875966   0.000000
     10          7.374675   0.000000
     11          8.133389   0.000000
     12          8.889753   0.000000
     13         11.107464   0.000000
     14         13.080970   0.000000
     15         14.942222   0.000000
     16         21.027262   0.000000
     17         21.368420   0.000000
     18         24.020399   0.000000
     19         24.169328   0.000000
     20         25.230483   0.000000
     21         28.066791   0.000000
     22         28.858331   0.000000
     23         29.247113   0.000000
     24         30.703291   0.000000
     25         30.745307   0.000000
     26         31.001914   0.000000
     27         31.147919   0.000000
     28         31.913401   0.000000
     29         32.489537   0.000000
     30         34.139834   0.000000
 
  0.1666667E+00  0.5555556E-01  0.0000000E+00  0.3703704E-01
      1        -20.740878   1.000000
      2         -8.750382   1.000000
      3         -6.558307   1.000000
      4         -5.794846   1.000000
      5          2.156749   0.000000
      6          3.297624   0.000000
      7          4.159498   0.000000
      8          6.802131   0.000000
      9          7.258952   0.000000
     10          7.995362   0.000000
     11          8.286308   0.000000
     12          8.531906   0.000000
     13         11.756297   0.000000
     14         13.418924   0.000000
     15         15.325787   0.000000
     16         20.606018   0.000000
     17         22.036758   0.000000
     18         22.973037   0.000000
     19         24.242830   0.000000
     20         24.409655   0.000000
     21         26.014746   0.000000
     22         27.650395   0.000000
     23         27.804605   0.000000
     24         28.043252   0.000000
     25         28.260274   0.000000
     26         29.665348   0.000000
     27         29.692337   0.000000
     28         31.713604   0.000000
     29         32.109074   0.000000
     30         32.570997   0.000000
 
  0.2222222E+00  0.5555556E-01  0.0000000E+00  0.3703704E-01
      1        -20.307165   1.000000
      2         -8.238989   1.000000
      3         -7.789432   1.000000
      4         -6.413092   1.000000
      5          2.750582   0.000000
      6          3.887927   0.000000
      7          4.756412   0.000000
      8          6.752944   0.000000
      9          6.786210   0.000000
     10          7.840701   0.000000
     11          9.110566   0.000000
     12          9.577315   0.000000
     13         12.725221   0.000000
     14         13.895803   0.000000
     15         15.893334   0.000000
     16         19.403405   0.000000
     17         22.129508   0.000000
     18         22.772390   0.000000
     19         22.982851   0.000000
     20         23.660686   0.000000
     21         24.922462   0.000000
     22         25.235652   0.000000
     23         25.242217   0.000000
     24         26.667135   0.000000
     25         27.685561   0.000000
     26         28.480730   0.000000
     27         28.852707   0.000000
     28         29.385810   0.000000
     29         30.033217   0.000000
     30         31.653548   0.000000
 
  0.2777778E+00  0.5555556E-01  0.0000000E+00  0.3703704E-01
      1        -19.732613   1.000000
      2         -9.178704   1.000000
      3         -7.569424   1.000000
      4         -7.012460   1.000000
      5          3.540958   0.000000
      6          4.647769   0.000000
      7          5.410855   0.000000
      8          5.548227   0.000000
      9          6.586432   0.000000
     10          8.598219   0.000000
     11          9.884797   0.000000
     12         11.102117   0.000000
     13         13.847496   0.000000
     14         14.441693   0.000000
     15         16.635998   0.000000
     16         18.093946   0.000000
     17         20.093313   0.000000
     18         21.277670   0.000000
     19         21.938216   0.000000
     20         22.547400   0.000000
     21         23.787091   0.000000
     22         23.953924   0.000000
     23         25.471280   0.000000
     24         25.986135   0.000000
     25         26.453692   0.000000
     26         27.015314   0.000000
     27         27.085955   0.000000
     28         27.698959   0.000000
     29         29.774318   0.000000
     30         30.639109   0.000000
 
  0.3333333E+00  0.5555556E-01  0.0000000E+00  0.3703704E-01
      1        -19.021218   1.000000
      2        -10.625922   1.000000
      3         -7.535819   1.000000
      4         -6.757727   1.000000
      5          3.848024   0.000000
      6          4.525241   0.000000
      7          5.686633   0.000000
      8          6.312315   0.000000
      9          6.607400   0.000000
     10          9.530896   0.000000
     11         10.845896   0.000000
     12         12.641511   0.000000
     13         14.813458   0.000000
     14         14.835500   0.000000
     15         17.077730   0.000000
     16         17.514977   0.000000
     17         17.938814   0.000000
     18         19.379780   0.000000
     19         19.643785   0.000000
     20         21.513140   0.000000
     21         23.153601   0.000000
     22         23.329362   0.000000
     23         24.408105   0.000000
     24         25.469505   0.000000
     25         25.498310   0.000000
     26         26.173184   0.000000
     27         26.584622   0.000000
     28         27.607052   0.000000
     29         28.920117   0.000000
     30         29.798733   0.000000
 
  0.3888889E+00  0.5555556E-01  0.0000000E+00  0.3703704E-01
      1        -18.179874   1.000000
      2        -12.061335   1.000000
      3         -7.949692   1.000000
      4         -5.837204   1.000000
      5          2.353863   0.000000
      6          5.685624   0.000000
      7          6.178750   0.000000
      8          6.847880   0.000000
      9          7.757187   0.000000
     10         10.611982   0.000000
     11         11.987135   0.000000
     12         13.347101   0.000000
     13         14.406856   0.000000
     14         15.275602   0.000000
     15         16.363303   0.000000
     16         16.392330   0.000000
     17         18.097250   0.000000
     18         18.254306   0.000000
     19         18.631452   0.000000
     20         20.251920   0.000000
     21         21.696303   0.000000
     22         22.160500   0.000000
     23         23.762931   0.000000
     24         25.105929   0.000000
     25         25.505321   0.000000
     26         25.567415   0.000000
     27         26.063749   0.000000
     28         27.870344   0.000000
     29         28.155395   0.000000
     30         29.013682   0.000000
 
  0.4444444E+00  0.5555556E-01  0.0000000E+00  0.3703704E-01
      1        -17.224696   1.000000
      2        -13.430466   1.000000
      3         -8.234509   1.000000
      4         -4.890685   1.000000
      5          0.991779   0.000000
      6          5.999141   0.000000
      7          7.091361   0.000000
      8          8.193208   0.000000
      9          9.140104   0.000000
     10         11.732714   0.000000
     11         12.082106   0.000000
     12         13.182252   0.000000
     13         13.302744   0.000000
     14         14.307694   0.000000
     15         15.547893   0.000000
     16         16.428927   0.000000
     17         17.864342   0.000000
     18         17.904984   0.000000
     19         19.537045   0.000000
     20         19.546203   0.000000
     21         20.681600   0.000000
     22         21.465919   0.000000
     23         23.380708   0.000000
     24         24.560476   0.000000
     25         24.713814   0.000000
     26         25.272585   0.000000
     27         25.587644   0.000000
     28         26.972173   0.000000
     29         27.878983   0.000000
     30         28.667531   0.000000
 
  0.5000000E+00  0.5555556E-01  0.0000000E+00  0.3703704E-01
      1        -16.238806   1.000000
      2        -14.628422   1.000000
      3         -8.379355   1.000000
      4         -4.163210   1.000000
      5          0.047504   0.000000
      6          5.929776   0.000000
      7          8.628673   0.000000
      8          9.684194   0.000000
      9         10.327092   0.000000
     10         10.719289   0.000000
     11         11.316629   0.000000
     12         12.460719   0.000000
     13         13.097582   0.000000
     14         14.733589   0.000000
     15         14.811095   0.000000
     16         16.127365   0.000000
     17         17.198370   0.000000
     18         17.839163   0.000000
     19         20.017870   0.000000
     20         20.079318   0.000000
     21         20.962139   0.000000
     22         21.042560   0.000000
     23         23.210805   0.000000
     24         23.826308   0.000000
     25         23.840525   0.000000
     26         25.041791   0.000000
     27         25.274827   0.000000
     28         26.109514   0.000000
     29         28.426827   0.000000
     30         28.468420   0.000000
 
  0.2222222E+00  0.1111111E+00  0.0000000E+00  0.1851852E-01
      1        -20.379289   1.000000
      2         -8.323495   1.000000
      3         -7.457505   1.000000
      4         -6.497892   1.000000
      5          2.651959   0.000000
      6          3.790577   0.000000
      7          4.657828   0.000000
      8          7.001284   0.000000
      9          7.223483   0.000000
     10          7.735783   0.000000
     11          8.776980   0.000000
     12          9.023529   0.000000
     13         12.748388   0.000000
     14         13.806275   0.000000
     15         15.798954   0.000000
     16         19.342836   0.000000
     17         22.422348   0.000000
     18         22.804899   0.000000
     19         23.580265   0.000000
     20         24.499006   0.000000
     21         24.802724   0.000000
     22         25.336087   0.000000
     23         26.424812   0.000000
     24         26.535110   0.000000
     25         26.878550   0.000000
     26         26.961923   0.000000
     27         28.876871   0.000000
     28         30.566269   0.000000
     29         30.642224   0.000000
     30         30.717418   0.000000
 
  0.2777778E+00  0.1111111E+00  0.0000000E+00  0.3703704E-01
      1        -19.875935   1.000000
      2         -8.592692   1.000000
      3         -7.734254   1.000000
      4         -7.237031   1.000000
      5          3.344415   0.000000
      6          4.475530   0.000000
      7          5.354797   0.000000
      8          5.776587   0.000000
      9          7.428300   0.000000
     10          8.394202   0.000000
     11          9.596471   0.000000
     12          9.732726   0.000000
     13         14.042334   0.000000
     14         14.248432   0.000000
     15         16.450974   0.000000
     16         17.958795   0.000000
     17         21.423609   0.000000
     18         22.171197   0.000000
     19         22.842810   0.000000
     20         23.075944   0.000000
     21         23.590912   0.000000
     22         24.480873   0.000000
     23         24.604451   0.000000
     24         25.462625   0.000000
     25         25.661425   0.000000
     26         26.167339   0.000000
     27         28.219975   0.000000
     28         28.290223   0.000000
     29         28.964715   0.000000
     30         29.897223   0.000000
 
  0.3333333E+00  0.1111111E+00  0.0000000E+00  0.3703704E-01
      1        -19.234081   1.000000
      2         -9.903388   1.000000
      3         -7.876645   1.000000
      4         -6.994057   1.000000
      5          4.232523   0.000000
      6          4.383114   0.000000
      7          5.373713   0.000000
      8          6.246741   0.000000
      9          7.346649   0.000000
     10          9.223176   0.000000
     11         10.539511   0.000000
     12         10.919325   0.000000
     13         14.484086   0.000000
     14         15.340217   0.000000
     15         17.097340   0.000000
     16         17.266228   0.000000
     17         19.149395   0.000000
     18         20.156980   0.000000
     19         20.946088   0.000000
     20         22.342908   0.000000
     21         22.507018   0.000000
     22         23.761828   0.000000
     23         24.008154   0.000000
     24         24.699031   0.000000
     25         24.785463   0.000000
     26         25.826240   0.000000
     27         26.452229   0.000000
     28         27.271527   0.000000
     29         28.253275   0.000000
     30         29.040928   0.000000
 
  0.3888889E+00  0.1111111E+00  0.0000000E+00  0.3703704E-01
      1        -18.459178   1.000000
      2        -11.285518   1.000000
      3         -8.385141   1.000000
      4         -6.124858   1.000000
      5          2.950881   0.000000
      6          5.313020   0.000000
      7          6.434800   0.000000
      8          7.113107   0.000000
      9          7.398271   0.000000
     10         10.190871   0.000000
     11         11.590870   0.000000
     12         12.227510   0.000000
     13         14.159190   0.000000
     14         15.818159   0.000000
     15         16.911936   0.000000
     16         17.466659   0.000000
     17         18.209760   0.000000
     18         18.340148   0.000000
     19         18.972347   0.000000
     20         21.024945   0.000000
     21         21.688044   0.000000
     22         22.759638   0.000000
     23         23.103212   0.000000
     24         23.740971   0.000000
     25         24.303895   0.000000
     26         25.179543   0.000000
     27         25.779908   0.000000
     28         27.580580   0.000000
     29         27.811573   0.000000
     30         28.524460   0.000000
 
  0.4444444E+00  0.1111111E+00  0.0000000E+00  0.3703704E-01
      1        -17.561614   1.000000
      2        -12.656455   1.000000
      3         -8.754042   1.000000
      4         -5.175612   1.000000
      5          1.553468   0.000000
      6          6.566414   0.000000
      7          7.005583   0.000000
      8          7.674697   0.000000
      9          8.646730   0.000000
     10         11.191083   0.000000
     11         12.596603   0.000000
     12         12.884915   0.000000
     13         13.535646   0.000000
     14         14.900176   0.000000
     15         15.769538   0.000000
     16         16.196891   0.000000
     17         18.276587   0.000000
     18         18.660770   0.000000
     19         19.237799   0.000000
     20         19.476662   0.000000
     21         21.027348   0.000000
     22         21.429738   0.000000
     23         22.376616   0.000000
     24         23.210744   0.000000
     25         23.787505   0.000000
     26         24.588234   0.000000
     27         25.623418   0.000000
     28         27.099332   0.000000
     29         27.436448   0.000000
     30         27.809055   0.000000
 
  0.5000000E+00  0.1111111E+00  0.0000000E+00  0.3703704E-01
      1        -16.573143   1.000000
      2        -13.942918   1.000000
      3         -8.977741   1.000000
      4         -4.282485   1.000000
      5          0.373671   0.000000
      6          6.863043   0.000000
      7          8.052453   0.000000
      8          9.050334   0.000000
      9         10.120236   0.000000
     10         11.356737   0.000000
     11         11.657515   0.000000
     12         12.991332   0.000000
     13         13.531029   0.000000
     14         14.185755   0.000000
     15         14.836642   0.000000
     16         16.021075   0.000000
     17         17.418312   0.000000
     18         18.092805   0.000000
     19         19.733671   0.000000
     20         20.101094   0.000000
     21         20.936984   0.000000
     22         20.998935   0.000000
     23         21.731194   0.000000
     24         22.911208   0.000000
     25         23.229432   0.000000
     26         24.002939   0.000000
     27         25.068972   0.000000
     28         26.078433   0.000000
     29         26.836300   0.000000
     30         27.286177   0.000000
 
 -0.4444444E+00  0.1111111E+00  0.0000000E+00  0.1851852E-01
      1        -15.831943   1.000000
      2        -14.785596   1.000000
      3         -9.052726   1.000000
      4         -3.846982   1.000000
      5         -0.160374   0.000000
      6          6.828347   0.000000
      7          9.579403   0.000000
      8          9.743848   0.000000
      9         10.191923   0.000000
     10         10.922938   0.000000
     11         11.743586   0.000000
     12         11.807145   0.000000
     13         12.992009   0.000000
     14         14.847515   0.000000
     15         15.319517   0.000000
     16         15.706645   0.000000
     17         16.591805   0.000000
     18         17.623025   0.000000
     19         20.637017   0.000000
     20         20.650229   0.000000
     21         20.726417   0.000000
     22         21.019211   0.000000
     23         21.112821   0.000000
     24         22.859637   0.000000
     25         22.955386   0.000000
     26         23.806182   0.000000
     27         24.796791   0.000000
     28         25.319107   0.000000
     29         26.744418   0.000000
     30         27.153456   0.000000
 
  0.3333333E+00  0.1666667E+00  0.0000000E+00  0.1851852E-01
      1        -19.305289   1.000000
      2         -9.511386   1.000000
      3         -8.155017   1.000000
      4         -7.073348   1.000000
      5          4.134674   0.000000
      6          4.597844   0.000000
      7          5.255018   0.000000
      8          6.151759   0.000000
      9          8.235345   0.000000
     10          9.115246   0.000000
     11          9.737593   0.000000