 vasp.6.3.0 20Jan22 (build Jan 26 2022 20:51:09) complex                        
  
 executed on             LinuxIFC date 2023.07.15  20:49:21
 running on   30 total cores
 distrk:  each k-point on   30 cores,    1 groups
 distr:  one band on NCORE=   1 cores,   30 groups


--------------------------------------------------------------------------------------------------------


 INCAR:
   ISTART = 0            (Read existing wavefunction
   ISPIN = 1            (Non-Spin polarised DFT)
   LREAL = .FALSE.       (Projection operators: automatic)
   ENCUT = 520        (Cut-off energy for plane wave basis set, in eV)
   PREC = A       (Precision level)
   LWAVE = .TRUE.        (Write WAVECAR or not)
   LCHARG = .TRUE.        (Write CHGCAR or not)
   ADDGRID = F        (Increase grid
   ISMEAR = 0            (Gaussian smearing
   SIGMA = 0.05         (Smearing value in eV
   NELM = 200
   EDIFF = 1E-6        (SCF energy convergence
   NSW = 0          (Max ionic steps)
   IBRION = -1            (Algorithm: 0-MD
   ISIF = 3           (Stress/relaxation: 2-Ions, 3-Shape/Ions/V, 4-Shape/Ions)
   EDIFFG = -1E-05        (Ionic convergence
   NPAR = 4

 POTCAR:    PAW_PBE C 08Apr2002                   
 -----------------------------------------------------------------------------
|                                                                             |
|           W    W    AA    RRRRR   N    N  II  N    N   GGGG   !!!           |
|           W    W   A  A   R    R  NN   N  II  NN   N  G    G  !!!           |
|           W    W  A    A  R    R  N N  N  II  N N  N  G       !!!           |
|           W WW W  AAAAAA  RRRRR   N  N N  II  N  N N  G  GGG   !            |
|           WW  WW  A    A  R   R   N   NN  II  N   NN  G    G                |
|           W    W  A    A  R    R  N    N  II  N    N   GGGG   !!!           |
|                                                                             |
|     The value NPAR = 4 specified in the INCAR file was overwritten,         |
|     because it was not compatible with the 30 processes available:          |
|     NPAR = 30                                                               |
|     was used instead, please check that this makes sense for your           |
|     machine.                                                                |
|                                                                             |
 -----------------------------------------------------------------------------

 -----------------------------------------------------------------------------
|                                                                             |
|           W    W    AA    RRRRR   N    N  II  N    N   GGGG   !!!           |
|           W    W   A  A   R    R  NN   N  II  NN   N  G    G  !!!           |
|           W    W  A    A  R    R  N N  N  II  N N  N  G       !!!           |
|           W WW W  AAAAAA  RRRRR   N  N N  II  N  N N  G  GGG   !            |
|           WW  WW  A    A  R   R   N   NN  II  N   NN  G    G                |
|           W    W  A    A  R    R  N    N  II  N    N   GGGG   !!!           |
|                                                                             |
|     For optimal performance we recommend to set                             |
|       NCORE = 2 up to number-of-cores-per-socket                            |
|     NCORE specifies how many cores store one orbital (NPAR=cpu/NCORE).      |
|     This setting can greatly improve the performance of VASP for DFT.       |
|     The default, NCORE=1 might be grossly inefficient on modern             |
|     multi-core architectures or massively parallel machines. Do your        |
|     own testing! More info at https://www.vasp.at/wiki/index.php/NCORE      |
|     Unfortunately you need to use the default for GW and RPA                |
|     calculations (for HF NCORE is supported but not extensively tested      |
|     yet).                                                                   |
|                                                                             |
 -----------------------------------------------------------------------------

 POTCAR:    PAW_PBE C 08Apr2002                   
   VRHFIN =C: s2p2                                                                                  
   LEXCH  = PE                                                                                      
   EATOM  =   147.1560 eV,   10.8157 Ry                                                             
                                                                                                    
   TITEL  = PAW_PBE C 08Apr2002                                                                     
   LULTRA =        F    use ultrasoft PP ?                                                          
   IUNSCR =        1    unscreen: 0-lin 1-nonlin 2-no                                               
   RPACOR =    1.200    partial core radius                                                         
   POMASS =   12.011; ZVAL   =    4.000    mass and valenz                                          
   RCORE  =    1.500    outmost cutoff radius                                                       
   RWIGS  =    1.630; RWIGS  =    0.863    wigner-seitz radius (au A)                               
   ENMAX  =  400.000; ENMIN  =  300.000 eV                                                          
   ICORE  =        2    local potential                                                             
   LCOR   =        T    correct aug charges                                                         
   LPAW   =        T    paw PP                                                                      
   EAUG   =  644.873                                                                                
   DEXC   =    0.000                                                                                
   RMAX   =    1.529    core radius for proj-oper                                                   
   RAUG   =    1.300    factor for augmentation sphere                                              
   RDEP   =    1.501    radius for radial grids                                                     
   RDEPT  =    1.300    core radius for aug-charge                                                  
                                                                                                    
   Atomic configuration                                                                             
    4 entries                                                                                       
     n  l   j            E        occ.                                                              
     1  0  0.50      -273.3789   2.0000                                                             
     2  0  0.50       -13.7508   2.0000                                                             
     2  1  0.50        -5.2854   2.0000                                                             
     3  2  1.50        -5.4423   0.0000                                                             
   Description                                                                                      
     l       E           TYP  RCUT    TYP  RCUT                                                     
     0    -13.7508458     23  1.200                                                                 
     0     -8.2022199     23  1.200                                                                 
     1     -5.2854383     23  1.500                                                                 
     1     34.0145650     23  1.500                                                                 
     2     -5.4423304      7  1.500                                                                 
  local pseudopotential read in
  partial core-charges read in
  partial kinetic energy density read in
  atomic valenz-charges read in
  non local Contribution for L=           0  read in
    real space projection operators read in
  non local Contribution for L=           0  read in
    real space projection operators read in
  non local Contribution for L=           1  read in
    real space projection operators read in
  non local Contribution for L=           1  read in
    real space projection operators read in
    PAW grid and wavefunctions read in
 
   number of l-projection  operators is LMAX  =           4
   number of lm-projection operators is LMMAX =           8
 
  PAW_PBE C 08Apr2002                   :
 energy of atom  1       EATOM= -147.1560
 kinetic energy error for atom=    0.0071 (will be added to EATOM!!)
 
 
 POSCAR: C4
  positions in direct lattice
  velocities in cartesian coordinates
 exchange correlation table for  LEXCH =        8
   RHO(1)=    0.500       N(1)  =     2000
   RHO(2)=  100.500       N(2)  =     4000
 


--------------------------------------------------------------------------------------------------------


 ion  position               nearest neighbor table
   1  0.000  0.000  0.500-   2 1.42   2 1.42   2 1.42
   2  0.333  0.333  0.500-   1 1.42   1 1.42   1 1.42
 
  LATTYP: Found a hexagonal cell.
 ALAT       =     2.4681332416
 C/A-ratio  =     4.8619741422
  
  Lattice vectors:
  
 A1 = (  -1.2340666208,  -2.1374660871,   0.0000000000)
 A2 = (   2.4681332416,   0.0000000000,   0.0000000000)
 A3 = (   0.0000000000,   0.0000000000,  12.0000000000)


Analysis of symmetry for initial positions (statically):
=====================================================================
 Subroutine PRICEL returns:
 Original cell was already a primitive cell.
 

 Routine SETGRP: Setting up the symmetry group for a 
 hexagonal supercell.


 Subroutine GETGRP returns: Found 24 space group operations
 (whereof 12 operations were pure point group operations)
 out of a pool of 24 trial point group operations.


The static configuration has the point symmetry D_3h.
 The point group associated with its full space group is D_6h.


Analysis of symmetry for dynamics (positions and initial velocities):
=====================================================================
 Subroutine PRICEL returns:
 Original cell was already a primitive cell.
 

 Routine SETGRP: Setting up the symmetry group for a 
 hexagonal supercell.


 Subroutine GETGRP returns: Found 24 space group operations
 (whereof 12 operations were pure point group operations)
 out of a pool of 24 trial point group operations.


The dynamic configuration has the point symmetry D_3h.
 The point group associated with its full space group is D_6h.


 Subroutine INISYM returns: Found 24 space group operations
 (whereof 12 operations are pure point group operations),
 and found     1 'primitive' translations


----------------------------------------------------------------------------------------

                                     Primitive cell                                     

  volume of cell :      63.3066

  direct lattice vectors                    reciprocal lattice vectors
     2.468133242  0.000000000  0.000000000     0.405164512 -0.233921840  0.000000000
     1.234066621  2.137466087  0.000000000     0.000000000  0.467843680  0.000000000
     0.000000000  0.000000000 12.000000000     0.000000000  0.000000000  0.083333333

  length of vectors
     2.468133242  2.468133242 12.000000000     0.467843680  0.467843680  0.083333333

  position of ions in fractional coordinates (direct lattice)
     0.000000000  0.000000000  0.500000000
     0.333333343  0.333333343  0.500000000

  ion indices of the primitive-cell ions
   primitive index   ion index
                 1           1
                 2           2

----------------------------------------------------------------------------------------

 
 
 KPOINTS: 0.030  18  18   1   37  0.030  132    3 

Read explicit list of k-points.

 Found    169 k-points:

 Following reciprocal coordinates:
            Coordinates               Weight
  0.000000  0.000000  0.000000      0.003086
  0.055556  0.000000  0.000000      0.018519
  0.111111  0.000000  0.000000      0.018519
  0.166667  0.000000  0.000000      0.018519
  0.222222  0.000000  0.000000      0.018519
  0.277778  0.000000  0.000000      0.018519
  0.333333  0.000000  0.000000      0.018519
  0.388889  0.000000  0.000000      0.018519
  0.444444  0.000000  0.000000      0.018519
  0.500000  0.000000  0.000000      0.009259
  0.111111  0.055556  0.000000      0.018519
  0.166667  0.055556  0.000000      0.037037
  0.222222  0.055556  0.000000      0.037037
  0.277778  0.055556  0.000000      0.037037
  0.333333  0.055556  0.000000      0.037037
  0.388889  0.055556  0.000000      0.037037
  0.444444  0.055556  0.000000      0.037037
  0.500000  0.055556  0.000000      0.037037
  0.222222  0.111111  0.000000      0.018519
  0.277778  0.111111  0.000000      0.037037
  0.333333  0.111111  0.000000      0.037037
  0.388889  0.111111  0.000000      0.037037
  0.444444  0.111111  0.000000      0.037037
  0.500000  0.111111  0.000000      0.037037
 -0.444444  0.111111  0.000000      0.018519
  0.333333  0.166667  0.000000      0.018519
  0.388889  0.166667  0.000000      0.037037
  0.444444  0.166667  0.000000      0.037037
  0.500000  0.166667  0.000000      0.037037
 -0.444444  0.166667  0.000000      0.037037
  0.444444  0.222222  0.000000      0.018519
  0.500000  0.222222  0.000000      0.037037
 -0.444444  0.222222  0.000000      0.037037
 -0.388889  0.222222  0.000000      0.018519
 -0.444444  0.277778  0.000000      0.018519
 -0.388889  0.277778  0.000000      0.037037
 -0.333333  0.333333  0.000000      0.006173
  0.000000  0.000000  0.000000      0.000000
  0.010638  0.010638  0.000000      0.000000
  0.021277  0.021277  0.000000      0.000000
  0.031915  0.031915  0.000000      0.000000
  0.042553  0.042553  0.000000      0.000000
  0.053191  0.053191  0.000000      0.000000
  0.063830  0.063830  0.000000      0.000000
  0.074468  0.074468  0.000000      0.000000
  0.085106  0.085106  0.000000      0.000000
  0.095745  0.095745  0.000000      0.000000
  0.106383  0.106383  0.000000      0.000000
  0.117021  0.117021  0.000000      0.000000
  0.127660  0.127660  0.000000      0.000000
  0.138298  0.138298  0.000000      0.000000
  0.148936  0.148936  0.000000      0.000000
  0.159574  0.159574  0.000000      0.000000
  0.170213  0.170213  0.000000      0.000000
  0.180851  0.180851  0.000000      0.000000
  0.191489  0.191489  0.000000      0.000000
  0.202128  0.202128  0.000000      0.000000
  0.212766  0.212766  0.000000      0.000000
  0.223404  0.223404  0.000000      0.000000
  0.234043  0.234043  0.000000      0.000000
  0.244681  0.244681  0.000000      0.000000
  0.255319  0.255319  0.000000      0.000000
  0.265957  0.265957  0.000000      0.000000
  0.276596  0.276596  0.000000      0.000000
  0.287234  0.287234  0.000000      0.000000
  0.297872  0.297872  0.000000      0.000000
  0.308511  0.308511  0.000000      0.000000
  0.319149  0.319149  0.000000      0.000000
  0.329787  0.329787  0.000000      0.000000
  0.340426  0.340426  0.000000      0.000000
  0.351064  0.351064  0.000000      0.000000
  0.361702  0.361702  0.000000      0.000000
  0.372340  0.372340  0.000000      0.000000
  0.382979  0.382979  0.000000      0.000000
  0.393617  0.393617  0.000000      0.000000
  0.404255  0.404255  0.000000      0.000000
  0.414894  0.414894  0.000000      0.000000
  0.425532  0.425532  0.000000      0.000000
  0.436170  0.436170  0.000000      0.000000
  0.446809  0.446809  0.000000      0.000000
  0.457447  0.457447  0.000000      0.000000
  0.468085  0.468085  0.000000      0.000000
  0.478723  0.478723  0.000000      0.000000
  0.489362  0.489362  0.000000      0.000000
  0.500000  0.500000  0.000000      0.000000
  0.500000  0.500000  0.000000      0.000000
  0.493827  0.506173  0.000000      0.000000
  0.487654  0.512346  0.000000      0.000000
  0.481481  0.518519  0.000000      0.000000
  0.475309  0.524691  0.000000      0.000000
  0.469136  0.530864  0.000000      0.000000
  0.462963  0.537037  0.000000      0.000000
  0.456790  0.543210  0.000000      0.000000
  0.450617  0.549383  0.000000      0.000000
  0.444444  0.555556  0.000000      0.000000
  0.438272  0.561728  0.000000      0.000000
  0.432099  0.567901  0.000000      0.000000
  0.425926  0.574074  0.000000      0.000000
  0.419753  0.580247  0.000000      0.000000
  0.413580  0.586420  0.000000      0.000000
  0.407407  0.592593  0.000000      0.000000
  0.401235  0.598765  0.000000      0.000000
  0.395062  0.604938  0.000000      0.000000
  0.388889  0.611111  0.000000      0.000000
  0.382716  0.617284  0.000000      0.000000
  0.376543  0.623457  0.000000      0.000000
  0.370370  0.629630  0.000000      0.000000
  0.364198  0.635802  0.000000      0.000000
  0.358025  0.641975  0.000000      0.000000
  0.351852  0.648148  0.000000      0.000000
  0.345679  0.654321  0.000000      0.000000
  0.339506  0.660494  0.000000      0.000000
  0.333333  0.666667  0.000000      0.000000
  0.333333  0.666667  0.000000      0.000000
  0.327273  0.654545  0.000000      0.000000
  0.321212  0.642424  0.000000      0.000000
  0.315152  0.630303  0.000000      0.000000
  0.309091  0.618182  0.000000      0.000000
  0.303030  0.606061  0.000000      0.000000
  0.296970  0.593939  0.000000      0.000000
  0.290909  0.581818  0.000000      0.000000
  0.284848  0.569697  0.000000      0.000000
  0.278788  0.557576  0.000000      0.000000
  0.272727  0.545455  0.000000      0.000000
  0.266667  0.533333  0.000000      0.000000
  0.260606  0.521212  0.000000      0.000000
  0.254545  0.509091  0.000000      0.000000
  0.248485  0.496970  0.000000      0.000000
  0.242424  0.484848  0.000000      0.000000
  0.236364  0.472727  0.000000      0.000000
  0.230303  0.460606  0.000000      0.000000
  0.224242  0.448485  0.000000      0.000000
  0.218182  0.436364  0.000000      0.000000
  0.212121  0.424242  0.000000      0.000000
  0.206061  0.412121  0.000000      0.000000
  0.200000  0.400000  0.000000      0.000000
  0.193939  0.387879  0.000000      0.000000
  0.187879  0.375758  0.000000      0.000000
  0.181818  0.363636  0.000000      0.000000
  0.175758  0.351515  0.000000      0.000000
  0.169697  0.339394  0.000000      0.000000
  0.163636  0.327273  0.000000      0.000000
  0.157576  0.315152  0.000000      0.000000
  0.151515  0.303030  0.000000      0.000000
  0.145455  0.290909  0.000000      0.000000
  0.139394  0.278788  0.000000      0.000000
  0.133333  0.266667  0.000000      0.000000
  0.127273  0.254545  0.000000      0.000000
  0.121212  0.242424  0.000000      0.000000
  0.115152  0.230303  0.000000      0.000000
  0.109091  0.218182  0.000000      0.000000
  0.103030  0.206061  0.000000      0.000000
  0.096970  0.193939  0.000000      0.000000
  0.090909  0.181818  0.000000      0.000000
  0.084848  0.169697  0.000000      0.000000
  0.078788  0.157576  0.000000      0.000000
  0.072727  0.145455  0.000000      0.000000
  0.066667  0.133333  0.000000      0.000000
  0.060606  0.121212  0.000000      0.000000
  0.054545  0.109091  0.000000      0.000000
  0.048485  0.096970  0.000000      0.000000
  0.042424  0.084848  0.000000      0.000000
  0.036364  0.072727  0.000000      0.000000
  0.030303  0.060606  0.000000      0.000000
  0.024242  0.048485  0.000000      0.000000
  0.018182  0.036364  0.000000      0.000000
  0.012121  0.024242  0.000000      0.000000
  0.006061  0.012121  0.000000      0.000000
  0.000000  0.000000  0.000000      0.000000

 Following cartesian coordinates:
            Coordinates               Weight
  0.000000  0.000000  0.000000      0.003086
  0.022509 -0.012996  0.000000      0.018519
  0.045018 -0.025991  0.000000      0.018519
  0.067527 -0.038987  0.000000      0.018519
  0.090037 -0.051983  0.000000      0.018519
  0.112546 -0.064978  0.000000      0.018519
  0.135055 -0.077974  0.000000      0.018519
  0.157564 -0.090970  0.000000      0.018519
  0.180073 -0.103965  0.000000      0.018519
  0.202582 -0.116961  0.000000      0.009259
  0.045018  0.000000  0.000000      0.018519
  0.067527 -0.012996  0.000000      0.037037
  0.090037 -0.025991  0.000000      0.037037
  0.112546 -0.038987  0.000000      0.037037
  0.135055 -0.051983  0.000000      0.037037
  0.157564 -0.064978  0.000000      0.037037
  0.180073 -0.077974  0.000000      0.037037
  0.202582 -0.090970  0.000000      0.037037
  0.090037  0.000000  0.000000      0.018519
  0.112546 -0.012996  0.000000      0.037037
  0.135055 -0.025991  0.000000      0.037037
  0.157564 -0.038987  0.000000      0.037037
  0.180073 -0.051983  0.000000      0.037037
  0.202582 -0.064978  0.000000      0.037037
 -0.180073  0.155948  0.000000      0.018519
  0.135055  0.000000  0.000000      0.018519
  0.157564 -0.012996  0.000000      0.037037
  0.180073 -0.025991  0.000000      0.037037
  0.202582 -0.038987  0.000000      0.037037
 -0.180073  0.181939  0.000000      0.037037
  0.180073  0.000000  0.000000      0.018519
  0.202582 -0.012996  0.000000      0.037037
 -0.180073  0.207931  0.000000      0.037037
 -0.157564  0.194935  0.000000      0.018519
 -0.180073  0.233922  0.000000      0.018519
 -0.157564  0.220926  0.000000      0.037037
 -0.135055  0.233922  0.000000      0.006173
  0.000000  0.000000  0.000000      0.000000
  0.004310  0.002489  0.000000      0.000000
  0.008621  0.004977  0.000000      0.000000
  0.012931  0.007466  0.000000      0.000000
  0.017241  0.009954  0.000000      0.000000
  0.021551  0.012443  0.000000      0.000000
  0.025862  0.014931  0.000000      0.000000
  0.030172  0.017420  0.000000      0.000000
  0.034482  0.019908  0.000000      0.000000
  0.038792  0.022397  0.000000      0.000000
  0.043103  0.024885  0.000000      0.000000
  0.047413  0.027374  0.000000      0.000000
  0.051723  0.029862  0.000000      0.000000
  0.056033  0.032351  0.000000      0.000000
  0.060344  0.034839  0.000000      0.000000
  0.064654  0.037328  0.000000      0.000000
  0.068964  0.039816  0.000000      0.000000
  0.073274  0.042305  0.000000      0.000000
  0.077585  0.044794  0.000000      0.000000
  0.081895  0.047282  0.000000      0.000000
  0.086205  0.049771  0.000000      0.000000
  0.090515  0.052259  0.000000      0.000000
  0.094826  0.054748  0.000000      0.000000
  0.099136  0.057236  0.000000      0.000000
  0.103446  0.059725  0.000000      0.000000
  0.107757  0.062213  0.000000      0.000000
  0.112067  0.064702  0.000000      0.000000
  0.116377  0.067190  0.000000      0.000000
  0.120687  0.069679  0.000000      0.000000
  0.124998  0.072167  0.000000      0.000000
  0.129308  0.074656  0.000000      0.000000
  0.133618  0.077144  0.000000      0.000000
  0.137928  0.079633  0.000000      0.000000
  0.142239  0.082121  0.000000      0.000000
  0.146549  0.084610  0.000000      0.000000
  0.150859  0.087099  0.000000      0.000000
  0.155169  0.089587  0.000000      0.000000
  0.159480  0.092076  0.000000      0.000000
  0.163790  0.094564  0.000000      0.000000
  0.168100  0.097053  0.000000      0.000000
  0.172410  0.099541  0.000000      0.000000
  0.176721  0.102030  0.000000      0.000000
  0.181031  0.104518  0.000000      0.000000
  0.185341  0.107007  0.000000      0.000000
  0.189651  0.109495  0.000000      0.000000
  0.193962  0.111984  0.000000      0.000000
  0.198272  0.114472  0.000000      0.000000
  0.202582  0.116961  0.000000      0.000000
  0.202582  0.116961  0.000000      0.000000
  0.200081  0.121293  0.000000      0.000000
  0.197580  0.125625  0.000000      0.000000
  0.195079  0.129957  0.000000      0.000000
  0.192578  0.134288  0.000000      0.000000
  0.190077  0.138620  0.000000      0.000000
  0.187576  0.142952  0.000000      0.000000
  0.185075  0.147284  0.000000      0.000000
  0.182574  0.151616  0.000000      0.000000
  0.180073  0.155948  0.000000      0.000000
  0.177572  0.160280  0.000000      0.000000
  0.175071  0.164612  0.000000      0.000000
  0.172570  0.168944  0.000000      0.000000
  0.170069  0.173275  0.000000      0.000000
  0.167568  0.177607  0.000000      0.000000
  0.165067  0.181939  0.000000      0.000000
  0.162566  0.186271  0.000000      0.000000
  0.160065  0.190603  0.000000      0.000000
  0.157564  0.194935  0.000000      0.000000
  0.155063  0.199267  0.000000      0.000000
  0.152562  0.203599  0.000000      0.000000
  0.150061  0.207931  0.000000      0.000000
  0.147560  0.212262  0.000000      0.000000
  0.145059  0.216594  0.000000      0.000000
  0.142558  0.220926  0.000000      0.000000
  0.140057  0.225258  0.000000      0.000000
  0.137556  0.229590  0.000000      0.000000
  0.135055  0.233922  0.000000      0.000000
  0.135055  0.233922  0.000000      0.000000
  0.132599  0.229669  0.000000      0.000000
  0.130144  0.225416  0.000000      0.000000
  0.127688  0.221162  0.000000      0.000000
  0.125233  0.216909  0.000000      0.000000
  0.122777  0.212656  0.000000      0.000000
  0.120322  0.208403  0.000000      0.000000
  0.117866  0.204150  0.000000      0.000000
  0.115410  0.199897  0.000000      0.000000
  0.112955  0.195644  0.000000      0.000000
  0.110499  0.191391  0.000000      0.000000
  0.108044  0.187137  0.000000      0.000000
  0.105588  0.182884  0.000000      0.000000
  0.103133  0.178631  0.000000      0.000000
  0.100677  0.174378  0.000000      0.000000
  0.098222  0.170125  0.000000      0.000000
  0.095766  0.165872  0.000000      0.000000
  0.093311  0.161619  0.000000      0.000000
  0.090855  0.157366  0.000000      0.000000
  0.088400  0.153112  0.000000      0.000000
  0.085944  0.148859  0.000000      0.000000
  0.083488  0.144606  0.000000      0.000000
  0.081033  0.140353  0.000000      0.000000
  0.078577  0.136100  0.000000      0.000000
  0.076122  0.131847  0.000000      0.000000
  0.073666  0.127594  0.000000      0.000000
  0.071211  0.123341  0.000000      0.000000
  0.068755  0.119087  0.000000      0.000000
  0.066300  0.114834  0.000000      0.000000
  0.063844  0.110581  0.000000      0.000000
  0.061389  0.106328  0.000000      0.000000
  0.058933  0.102075  0.000000      0.000000
  0.056477  0.097822  0.000000      0.000000
  0.054022  0.093569  0.000000      0.000000
  0.051566  0.089316  0.000000      0.000000
  0.049111  0.085062  0.000000      0.000000
  0.046655  0.080809  0.000000      0.000000
  0.044200  0.076556  0.000000      0.000000
  0.041744  0.072303  0.000000      0.000000
  0.039289  0.068050  0.000000      0.000000
  0.036833  0.063797  0.000000      0.000000
  0.034378  0.059544  0.000000      0.000000
  0.031922  0.055291  0.000000      0.000000
  0.029467  0.051037  0.000000      0.000000
  0.027011  0.046784  0.000000      0.000000
  0.024555  0.042531  0.000000      0.000000
  0.022100  0.038278  0.000000      0.000000
  0.019644  0.034025  0.000000      0.000000
  0.017189  0.029772  0.000000      0.000000
  0.014733  0.025519  0.000000      0.000000
  0.012278  0.021266  0.000000      0.000000
  0.009822  0.017012  0.000000      0.000000
  0.007367  0.012759  0.000000      0.000000
  0.004911  0.008506  0.000000      0.000000
  0.002456  0.004253  0.000000      0.000000
  0.000000  0.000000  0.000000      0.000000
 


--------------------------------------------------------------------------------------------------------




 Dimension of arrays:
   k-points           NKPTS =    169   k-points in BZ     NKDIM =    169   number of bands    NBANDS=     30
   number of dos      NEDOS =    301   number of ions     NIONS =      2
   non local maximal  LDIM  =      4   non local SUM 2l+1 LMDIM =      8
   total plane-waves  NPLWV =  29160
   max r-space proj   IRMAX =      1   max aug-charges    IRDMAX=   5635
   dimension x,y,z NGX =    18 NGY =   18 NGZ =   90
   dimension x,y,z NGXF=    36 NGYF=   36 NGZF=  180
   support grid    NGXF=    36 NGYF=   36 NGZF=  180
   ions per type =               2
   NGX,Y,Z   is equivalent  to a cutoff of  12.12, 12.12, 12.47 a.u.
   NGXF,Y,Z  is equivalent  to a cutoff of  24.25, 24.25, 24.94 a.u.

 SYSTEM =  unknown system                          
 POSCAR =  C4                                      

 Startparameter for this run:
   NWRITE =      2    write-flag & timer
   PREC   = a         normal or accurate (medium, high low for compatibility)
   ISTART =      0    job   : 0-new  1-cont  2-samecut
   ICHARG =      2    charge: 1-file 2-atom 10-const
   ISPIN  =      1    spin polarized calculation?
   LNONCOLLINEAR =      F non collinear calculations
   LSORBIT =      F    spin-orbit coupling
   INIWAV =      1    electr: 0-lowe 1-rand  2-diag
   LASPH  =      F    aspherical Exc in radial PAW
 Electronic Relaxation 1
   ENCUT  =  520.0 eV  38.22 Ry    6.18 a.u.   4.59  4.59 22.31*2*pi/ulx,y,z
   ENINI  =  520.0     initial cutoff
   ENAUG  =  644.9 eV  augmentation charge cutoff
   NELM   =    200;   NELMIN=  2; NELMDL= -5     # of ELM steps 
   EDIFF  = 0.1E-05   stopping-criterion for ELM
   LREAL  =      F    real-space projection
   NLSPLINE    = F    spline interpolate recip. space projectors
   LCOMPAT=      F    compatible to vasp.4.4
   GGA_COMPAT  = T    GGA compatible to vasp.4.4-vasp.4.6
   LMAXPAW     = -100 max onsite density
   LMAXMIX     =    2 max onsite mixed and CHGCAR
   VOSKOWN=      0    Vosko Wilk Nusair interpolation
   ROPT   =    0.00000
 Ionic relaxation
   EDIFFG = -.1E-04   stopping-criterion for IOM
   NSW    =      0    number of steps for IOM
   NBLOCK =      1;   KBLOCK =      1    inner block; outer block 
   IBRION =     -1    ionic relax: 0-MD 1-quasi-New 2-CG
   NFREE  =      0    steps in history (QN), initial steepest desc. (CG)
   ISIF   =      3    stress and relaxation
   IWAVPR =     10    prediction:  0-non 1-charg 2-wave 3-comb
   ISYM   =      2    0-nonsym 1-usesym 2-fastsym
   LCORR  =      T    Harris-Foulkes like correction to forces

   POTIM  = 0.5000    time-step for ionic-motion
   TEIN   =    0.0    initial temperature
   TEBEG  =    0.0;   TEEND  =   0.0 temperature during run
   SMASS  =  -3.00    Nose mass-parameter (am)
   estimated Nose-frequenzy (Omega)   =  0.10E-29 period in steps = 0.13E+47 mass=  -0.139E-27a.u.
   SCALEE = 1.0000    scale energy and forces
   NPACO  =    256;   APACO  = 10.0  distance and # of slots for P.C.
   PSTRESS=    0.0 pullay stress

  Mass of Ions in am
   POMASS =  12.01
  Ionic Valenz
   ZVAL   =   4.00
  Atomic Wigner-Seitz radii
   RWIGS  =  -1.00
  virtual crystal weights 
   VCA    =   1.00
   NELECT =       8.0000    total number of electrons
   NUPDOWN=      -1.0000    fix difference up-down

 DOS related values:
   EMIN   =  10.00;   EMAX   =-10.00  energy-range for DOS
   EFERMI =   0.00
   ISMEAR =     0;   SIGMA  =   0.05  broadening in eV -4-tet -1-fermi 0-gaus

 Electronic relaxation 2 (details)
   IALGO  =     38    algorithm
   LDIAG  =      T    sub-space diagonalisation (order eigenvalues)
   LSUBROT=      F    optimize rotation matrix (better conditioning)
   TURBO    =      0    0=normal 1=particle mesh
   IRESTART =      0    0=no restart 2=restart with 2 vectors
   NREBOOT  =      0    no. of reboots
   NMIN     =      0    reboot dimension
   EREF     =   0.00    reference energy to select bands
   IMIX   =      4    mixing-type and parameters
     AMIX     =   0.40;   BMIX     =  1.00
     AMIX_MAG =   1.60;   BMIX_MAG =  1.00
     AMIN     =   0.10
     WC   =   100.;   INIMIX=   1;  MIXPRE=   1;  MAXMIX= -45

 Intra band minimization:
   WEIMIN = 0.0000     energy-eigenvalue tresh-hold
   EBREAK =  0.83E-08  absolut break condition
   DEPER  =   0.30     relativ break condition  

   TIME   =   0.40     timestep for ELM

  volume/ion in A,a.u.               =      31.65       213.61
  Fermi-wavevector in a.u.,A,eV,Ry     =   0.821527  1.552461  9.182660  0.674906
  Thomas-Fermi vector in A             =   1.932702
 
 Write flags
   LWAVE        =      T    write WAVECAR
   LDOWNSAMPLE  =      F    k-point downsampling of WAVECAR
   LCHARG       =      T    write CHGCAR
   LVTOT        =      F    write LOCPOT, total local potential
   LVHAR        =      F    write LOCPOT, Hartree potential only
   LELF         =      F    write electronic localiz. function (ELF)
   LORBIT       =      0    0 simple, 1 ext, 2 COOP (PROOUT), +10 PAW based schemes


 Dipole corrections
   LMONO  =      F    monopole corrections only (constant potential shift)
   LDIPOL =      F    correct potential (dipole corrections)
   IDIPOL =      0    1-x, 2-y, 3-z, 4-all directions 
   EPSILON=  1.0000000 bulk dielectric constant

 Exchange correlation treatment:
   GGA     =    --    GGA type
   LEXCH   =     8    internal setting for exchange type
   LIBXC   =     F    Libxc                    
   VOSKOWN =     0    Vosko Wilk Nusair interpolation
   LHFCALC =     F    Hartree Fock is set to
   LHFONE  =     F    Hartree Fock one center treatment
   AEXX    =    0.0000 exact exchange contribution

 Linear response parameters
   LEPSILON=     F    determine dielectric tensor
   LRPA    =     F    only Hartree local field effects (RPA)
   LNABLA  =     F    use nabla operator in PAW spheres
   LVEL    =     F    velocity operator in full k-point grid
   CSHIFT  =0.1000    complex shift for real part using Kramers Kronig
   OMEGAMAX=  -1.0    maximum frequency
   DEG_THRESHOLD= 0.2000000E-02 threshold for treating states as degnerate
   RTIME   =   -0.100 relaxation time in fs
  (WPLASMAI=    0.000 imaginary part of plasma frequency in eV, 0.658/RTIME)
   DFIELD  = 0.0000000 0.0000000 0.0000000 field for delta impulse in time
 
  Optional k-point grid parameters
   LKPOINTS_OPT  =     F    use optional k-point grid
   KPOINTS_OPT_MODE=     1    mode for optional k-point grid
 
 Orbital magnetization related:
   ORBITALMAG=     F  switch on orbital magnetization
   LCHIMAG   =     F  perturbation theory with respect to B field
   DQ        =  0.001000  dq finite difference perturbation B field
   LLRAUG    =     F  two centre corrections for induced B field



--------------------------------------------------------------------------------------------------------


 Static calculation
 charge density and potential will be updated during run
 non-spin polarized calculation
 Variant of blocked Davidson
 Davidson routine will perform the subspace rotation
 perform sub-space diagonalisation
    after iterative eigenvector-optimisation
 modified Broyden-mixing scheme, WC =      100.0
 initial mixing is a Kerker type mixing with AMIX =  0.4000 and BMIX =      1.0000
 Hartree-type preconditioning will be used
 using additional bands           26
 reciprocal scheme for non local part
 use partial core corrections
 calculate Harris-corrections to forces 
   (improved forces if not selfconsistent)
 use gradient corrections 
 use of overlap-Matrix (Vanderbilt PP)
 Gauss-broadening in eV      SIGMA  =   0.05


--------------------------------------------------------------------------------------------------------


  energy-cutoff  :      520.00
  volume of cell :       63.31
      direct lattice vectors                 reciprocal lattice vectors
     2.468133242  0.000000000  0.000000000     0.405164512 -0.233921840  0.000000000
     1.234066621  2.137466087  0.000000000     0.000000000  0.467843680  0.000000000
     0.000000000  0.000000000 12.000000000     0.000000000  0.000000000  0.083333333

  length of vectors
     2.468133242  2.468133242 12.000000000     0.467843680  0.467843680  0.083333333


 
 k-points in units of 2pi/SCALE and weight: 0.030  18  18   1   37  0.030  132    3 
   0.00000000  0.00000000  0.00000000       0.003
   0.02250914 -0.01299566  0.00000000       0.019
   0.04501828 -0.02599132  0.00000000       0.019
   0.06752742 -0.03898697  0.00000000       0.019
   0.09003656 -0.05198263  0.00000000       0.019
   0.11254570 -0.06497829  0.00000000       0.019
   0.13505484 -0.07797395  0.00000000       0.019
   0.15756398 -0.09096960  0.00000000       0.019
   0.18007312 -0.10396526  0.00000000       0.019
   0.20258226 -0.11696092  0.00000000       0.009
   0.04501828  0.00000000  0.00000000       0.019
   0.06752742 -0.01299566  0.00000000       0.037
   0.09003656 -0.02599132  0.00000000       0.037
   0.11254570 -0.03898697  0.00000000       0.037
   0.13505484 -0.05198263  0.00000000       0.037
   0.15756398 -0.06497829  0.00000000       0.037
   0.18007312 -0.07797395  0.00000000       0.037
   0.20258226 -0.09096960  0.00000000       0.037
   0.09003656  0.00000000  0.00000000       0.019
   0.11254570 -0.01299566  0.00000000       0.037
   0.13505484 -0.02599132  0.00000000       0.037
   0.15756398 -0.03898697  0.00000000       0.037
   0.18007312 -0.05198263  0.00000000       0.037
   0.20258226 -0.06497829  0.00000000       0.037
  -0.18007312  0.15594789  0.00000000       0.019
   0.13505484  0.00000000  0.00000000       0.019
   0.15756398 -0.01299566  0.00000000       0.037
   0.18007312 -0.02599132  0.00000000       0.037
   0.20258226 -0.03898697  0.00000000       0.037
  -0.18007312  0.18193921  0.00000000       0.037
   0.18007312  0.00000000  0.00000000       0.019
   0.20258226 -0.01299566  0.00000000       0.037
  -0.18007312  0.20793052  0.00000000       0.037
  -0.15756398  0.19493487  0.00000000       0.019
  -0.18007312  0.23392184  0.00000000       0.019
  -0.15756398  0.22092618  0.00000000       0.037
  -0.13505484  0.23392184  0.00000000       0.006
   0.00000000  0.00000000  0.00000000       0.000
   0.00431026  0.00248853  0.00000000       0.000
   0.00862052  0.00497706  0.00000000       0.000
   0.01293078  0.00746559  0.00000000       0.000
   0.01724104  0.00995412  0.00000000       0.000
   0.02155130  0.01244265  0.00000000       0.000
   0.02586156  0.01493118  0.00000000       0.000
   0.03017183  0.01741971  0.00000000       0.000
   0.03448209  0.01990824  0.00000000       0.000
   0.03879235  0.02239677  0.00000000       0.000
   0.04310261  0.02488530  0.00000000       0.000
   0.04741287  0.02737383  0.00000000       0.000
   0.05172313  0.02986236  0.00000000       0.000
   0.05603339  0.03235089  0.00000000       0.000
   0.06034365  0.03483942  0.00000000       0.000
   0.06465391  0.03732795  0.00000000       0.000
   0.06896417  0.03981648  0.00000000       0.000
   0.07327443  0.04230501  0.00000000       0.000
   0.07758469  0.04479354  0.00000000       0.000
   0.08189495  0.04728207  0.00000000       0.000
   0.08620522  0.04977060  0.00000000       0.000
   0.09051548  0.05225913  0.00000000       0.000
   0.09482574  0.05474766  0.00000000       0.000
   0.09913600  0.05723619  0.00000000       0.000
   0.10344626  0.05972473  0.00000000       0.000
   0.10775652  0.06221326  0.00000000       0.000
   0.11206678  0.06470179  0.00000000       0.000
   0.11637704  0.06719032  0.00000000       0.000
   0.12068730  0.06967885  0.00000000       0.000
   0.12499756  0.07216738  0.00000000       0.000
   0.12930782  0.07465591  0.00000000       0.000
   0.13361808  0.07714444  0.00000000       0.000
   0.13792834  0.07963297  0.00000000       0.000
   0.14223861  0.08212150  0.00000000       0.000
   0.14654887  0.08461003  0.00000000       0.000
   0.15085913  0.08709856  0.00000000       0.000
   0.15516939  0.08958709  0.00000000       0.000
   0.15947965  0.09207562  0.00000000       0.000
   0.16378991  0.09456415  0.00000000       0.000
   0.16810017  0.09705268  0.00000000       0.000
   0.17241043  0.09954121  0.00000000       0.000
   0.17672069  0.10202974  0.00000000       0.000
   0.18103095  0.10451827  0.00000000       0.000
   0.18534121  0.10700680  0.00000000       0.000
   0.18965147  0.10949533  0.00000000       0.000
   0.19396173  0.11198386  0.00000000       0.000
   0.19827200  0.11447239  0.00000000       0.000
   0.20258226  0.11696092  0.00000000       0.000
   0.20258226  0.11696092  0.00000000       0.000
   0.20008124  0.12129281  0.00000000       0.000
   0.19758022  0.12562469  0.00000000       0.000
   0.19507921  0.12995658  0.00000000       0.000
   0.19257819  0.13428846  0.00000000       0.000
   0.19007718  0.13862035  0.00000000       0.000
   0.18757616  0.14295224  0.00000000       0.000
   0.18507515  0.14728412  0.00000000       0.000
   0.18257413  0.15161601  0.00000000       0.000
   0.18007312  0.15594789  0.00000000       0.000
   0.17757210  0.16027978  0.00000000       0.000
   0.17507109  0.16461167  0.00000000       0.000
   0.17257007  0.16894355  0.00000000       0.000
   0.17006905  0.17327544  0.00000000       0.000
   0.16756804  0.17760732  0.00000000       0.000
   0.16506702  0.18193921  0.00000000       0.000
   0.16256601  0.18627109  0.00000000       0.000
   0.16006499  0.19060298  0.00000000       0.000
   0.15756398  0.19493487  0.00000000       0.000
   0.15506296  0.19926675  0.00000000       0.000
   0.15256195  0.20359864  0.00000000       0.000
   0.15006093  0.20793052  0.00000000       0.000
   0.14755991  0.21226241  0.00000000       0.000
   0.14505890  0.21659430  0.00000000       0.000
   0.14255788  0.22092618  0.00000000       0.000
   0.14005687  0.22525807  0.00000000       0.000
   0.13755585  0.22958995  0.00000000       0.000
   0.13505484  0.23392184  0.00000000       0.000
   0.13505484  0.23392184  0.00000000       0.000
   0.13259929  0.22966872  0.00000000       0.000
   0.13014375  0.22541559  0.00000000       0.000
   0.12768821  0.22116247  0.00000000       0.000
   0.12523267  0.21690934  0.00000000       0.000
   0.12277712  0.21265622  0.00000000       0.000
   0.12032158  0.20840309  0.00000000       0.000
   0.11786604  0.20414997  0.00000000       0.000
   0.11541050  0.19989685  0.00000000       0.000
   0.11295495  0.19564372  0.00000000       0.000
   0.11049941  0.19139060  0.00000000       0.000
   0.10804387  0.18713747  0.00000000       0.000
   0.10558833  0.18288435  0.00000000       0.000
   0.10313278  0.17863122  0.00000000       0.000
   0.10067724  0.17437810  0.00000000       0.000
   0.09822170  0.17012497  0.00000000       0.000
   0.09576616  0.16587185  0.00000000       0.000
   0.09331061  0.16161873  0.00000000       0.000
   0.09085507  0.15736560  0.00000000       0.000
   0.08839953  0.15311248  0.00000000       0.000
   0.08594399  0.14885935  0.00000000       0.000
   0.08348844  0.14460623  0.00000000       0.000
   0.08103290  0.14035310  0.00000000       0.000
   0.07857736  0.13609998  0.00000000       0.000
   0.07612182  0.13184686  0.00000000       0.000
   0.07366627  0.12759373  0.00000000       0.000
   0.07121073  0.12334061  0.00000000       0.000
   0.06875519  0.11908748  0.00000000       0.000
   0.06629965  0.11483436  0.00000000       0.000
   0.06384410  0.11058123  0.00000000       0.000
   0.06138856  0.10632811  0.00000000       0.000
   0.05893302  0.10207498  0.00000000       0.000
   0.05647748  0.09782186  0.00000000       0.000
   0.05402193  0.09356874  0.00000000       0.000
   0.05156639  0.08931561  0.00000000       0.000
   0.04911085  0.08506249  0.00000000       0.000
   0.04665531  0.08080936  0.00000000       0.000
   0.04419976  0.07655624  0.00000000       0.000
   0.04174422  0.07230311  0.00000000       0.000
   0.03928868  0.06804999  0.00000000       0.000
   0.03683314  0.06379687  0.00000000       0.000
   0.03437759  0.05954374  0.00000000       0.000
   0.03192205  0.05529062  0.00000000       0.000
   0.02946651  0.05103749  0.00000000       0.000
   0.02701097  0.04678437  0.00000000       0.000
   0.02455542  0.04253124  0.00000000       0.000
   0.02209988  0.03827812  0.00000000       0.000
   0.01964434  0.03402499  0.00000000       0.000
   0.01718880  0.02977187  0.00000000       0.000
   0.01473325  0.02551875  0.00000000       0.000
   0.01227771  0.02126562  0.00000000       0.000
   0.00982217  0.01701250  0.00000000       0.000
   0.00736663  0.01275937  0.00000000       0.000
   0.00491108  0.00850625  0.00000000       0.000
   0.00245554  0.00425312  0.00000000       0.000
   0.00000000  0.00000000  0.00000000       0.000
 
 k-points in reciprocal lattice and weights: 0.030  18  18   1   37  0.030  132    3 
   0.00000000  0.00000000  0.00000000       0.003
   0.05555556  0.00000000  0.00000000       0.019
   0.11111111  0.00000000  0.00000000       0.019
   0.16666667  0.00000000  0.00000000       0.019
   0.22222222  0.00000000  0.00000000       0.019
   0.27777778  0.00000000  0.00000000       0.019
   0.33333333  0.00000000  0.00000000       0.019
   0.38888889  0.00000000  0.00000000       0.019
   0.44444444  0.00000000  0.00000000       0.019
   0.50000000  0.00000000  0.00000000       0.009
   0.11111111  0.05555556  0.00000000       0.019
   0.16666667  0.05555556  0.00000000       0.037
   0.22222222  0.05555556  0.00000000       0.037
   0.27777778  0.05555556  0.00000000       0.037
   0.33333333  0.05555556  0.00000000       0.037
   0.38888889  0.05555556  0.00000000       0.037
   0.44444444  0.05555556  0.00000000       0.037
   0.50000000  0.05555556  0.00000000       0.037
   0.22222222  0.11111111  0.00000000       0.019
   0.27777778  0.11111111  0.00000000       0.037
   0.33333333  0.11111111  0.00000000       0.037
   0.38888889  0.11111111  0.00000000       0.037
   0.44444444  0.11111111  0.00000000       0.037
   0.50000000  0.11111111  0.00000000       0.037
  -0.44444444  0.11111111  0.00000000       0.019
   0.33333333  0.16666667  0.00000000       0.019
   0.38888889  0.16666667  0.00000000       0.037
   0.44444444  0.16666667  0.00000000       0.037
   0.50000000  0.16666667  0.00000000       0.037
  -0.44444444  0.16666667  0.00000000       0.037
   0.44444444  0.22222222  0.00000000       0.019
   0.50000000  0.22222222  0.00000000       0.037
  -0.44444444  0.22222222  0.00000000       0.037
  -0.38888889  0.22222222  0.00000000       0.019
  -0.44444444  0.27777778  0.00000000       0.019
  -0.38888889  0.27777778  0.00000000       0.037
  -0.33333333  0.33333333  0.00000000       0.006
   0.00000000  0.00000000  0.00000000       0.000
   0.01063830  0.01063830  0.00000000       0.000
   0.02127660  0.02127660  0.00000000       0.000
   0.03191489  0.03191489  0.00000000       0.000
   0.04255319  0.04255319  0.00000000       0.000
   0.05319149  0.05319149  0.00000000       0.000
   0.06382979  0.06382979  0.00000000       0.000
   0.07446809  0.07446809  0.00000000       0.000
   0.08510638  0.08510638  0.00000000       0.000
   0.09574468  0.09574468  0.00000000       0.000
   0.10638298  0.10638298  0.00000000       0.000
   0.11702128  0.11702128  0.00000000       0.000
   0.12765957  0.12765957  0.00000000       0.000
   0.13829787  0.13829787  0.00000000       0.000
   0.14893617  0.14893617  0.00000000       0.000
   0.15957447  0.15957447  0.00000000       0.000
   0.17021277  0.17021277  0.00000000       0.000
   0.18085106  0.18085106  0.00000000       0.000
   0.19148936  0.19148936  0.00000000       0.000
   0.20212766  0.20212766  0.00000000       0.000
   0.21276596  0.21276596  0.00000000       0.000
   0.22340426  0.22340426  0.00000000       0.000
   0.23404255  0.23404255  0.00000000       0.000
   0.24468085  0.24468085  0.00000000       0.000
   0.25531915  0.25531915  0.00000000       0.000
   0.26595745  0.26595745  0.00000000       0.000
   0.27659574  0.27659574  0.00000000       0.000
   0.28723404  0.28723404  0.00000000       0.000
   0.29787234  0.29787234  0.00000000       0.000
   0.30851064  0.30851064  0.00000000       0.000
   0.31914894  0.31914894  0.00000000       0.000
   0.32978723  0.32978723  0.00000000       0.000
   0.34042553  0.34042553  0.00000000       0.000
   0.35106383  0.35106383  0.00000000       0.000
   0.36170213  0.36170213  0.00000000       0.000
   0.37234043  0.37234043  0.00000000       0.000
   0.38297872  0.38297872  0.00000000       0.000
   0.39361702  0.39361702  0.00000000       0.000
   0.40425532  0.40425532  0.00000000       0.000
   0.41489362  0.41489362  0.00000000       0.000
   0.42553191  0.42553191  0.00000000       0.000
   0.43617021  0.43617021  0.00000000       0.000
   0.44680851  0.44680851  0.00000000       0.000
   0.45744681  0.45744681  0.00000000       0.000
   0.46808511  0.46808511  0.00000000       0.000
   0.47872340  0.47872340  0.00000000       0.000
   0.48936170  0.48936170  0.00000000       0.000
   0.50000000  0.50000000  0.00000000       0.000
   0.50000000  0.50000000  0.00000000       0.000
   0.49382716  0.50617284  0.00000000       0.000
   0.48765432  0.51234568  0.00000000       0.000
   0.48148148  0.51851852  0.00000000       0.000
   0.47530864  0.52469136  0.00000000       0.000
   0.46913580  0.53086420  0.00000000       0.000
   0.46296296  0.53703704  0.00000000       0.000
   0.45679012  0.54320988  0.00000000       0.000
   0.45061728  0.54938272  0.00000000       0.000
   0.44444444  0.55555556  0.00000000       0.000
   0.43827160  0.56172840  0.00000000       0.000
   0.43209877  0.56790123  0.00000000       0.000
   0.42592593  0.57407407  0.00000000       0.000
   0.41975309  0.58024691  0.00000000       0.000
   0.41358025  0.58641975  0.00000000       0.000
   0.40740741  0.59259259  0.00000000       0.000
   0.40123457  0.59876543  0.00000000       0.000
   0.39506173  0.60493827  0.00000000       0.000
   0.38888889  0.61111111  0.00000000       0.000
   0.38271605  0.61728395  0.00000000       0.000
   0.37654321  0.62345679  0.00000000       0.000
   0.37037037  0.62962963  0.00000000       0.000
   0.36419753  0.63580247  0.00000000       0.000
   0.35802469  0.64197531  0.00000000       0.000
   0.35185185  0.64814815  0.00000000       0.000
   0.34567901  0.65432099  0.00000000       0.000
   0.33950617  0.66049383  0.00000000       0.000
   0.33333333  0.66666667  0.00000000       0.000
   0.33333333  0.66666667  0.00000000       0.000
   0.32727273  0.65454545  0.00000000       0.000
   0.32121212  0.64242424  0.00000000       0.000
   0.31515152  0.63030303  0.00000000       0.000
   0.30909091  0.61818182  0.00000000       0.000
   0.30303030  0.60606061  0.00000000       0.000
   0.29696970  0.59393939  0.00000000       0.000
   0.29090909  0.58181818  0.00000000       0.000
   0.28484848  0.56969697  0.00000000       0.000
   0.27878788  0.55757576  0.00000000       0.000
   0.27272727  0.54545455  0.00000000       0.000
   0.26666667  0.53333333  0.00000000       0.000
   0.26060606  0.52121212  0.00000000       0.000
   0.25454545  0.50909091  0.00000000       0.000
   0.24848485  0.49696970  0.00000000       0.000
   0.24242424  0.48484848  0.00000000       0.000
   0.23636364  0.47272727  0.00000000       0.000
   0.23030303  0.46060606  0.00000000       0.000
   0.22424242  0.44848485  0.00000000       0.000
   0.21818182  0.43636364  0.00000000       0.000
   0.21212121  0.42424242  0.00000000       0.000
   0.20606061  0.41212121  0.00000000       0.000
   0.20000000  0.40000000  0.00000000       0.000
   0.19393939  0.38787879  0.00000000       0.000
   0.18787879  0.37575758  0.00000000       0.000
   0.18181818  0.36363636  0.00000000       0.000
   0.17575758  0.35151515  0.00000000       0.000
   0.16969697  0.33939394  0.00000000       0.000
   0.16363636  0.32727273  0.00000000       0.000
   0.15757576  0.31515152  0.00000000       0.000
   0.15151515  0.30303030  0.00000000       0.000
   0.14545455  0.29090909  0.00000000       0.000
   0.13939394  0.27878788  0.00000000       0.000
   0.13333333  0.26666667  0.00000000       0.000
   0.12727273  0.25454545  0.00000000       0.000
   0.12121212  0.24242424  0.00000000       0.000
   0.11515152  0.23030303  0.00000000       0.000
   0.10909091  0.21818182  0.00000000       0.000
   0.10303030  0.20606061  0.00000000       0.000
   0.09696970  0.19393939  0.00000000       0.000
   0.09090909  0.18181818  0.00000000       0.000
   0.08484848  0.16969697  0.00000000       0.000
   0.07878788  0.15757576  0.00000000       0.000
   0.07272727  0.14545455  0.00000000       0.000
   0.06666667  0.13333333  0.00000000       0.000
   0.06060606  0.12121212  0.00000000       0.000
   0.05454545  0.10909091  0.00000000       0.000
   0.04848485  0.09696970  0.00000000       0.000
   0.04242424  0.08484848  0.00000000       0.000
   0.03636364  0.07272727  0.00000000       0.000
   0.03030303  0.06060606  0.00000000       0.000
   0.02424242  0.04848485  0.00000000       0.000
   0.01818182  0.03636364  0.00000000       0.000
   0.01212121  0.02424242  0.00000000       0.000
   0.00606061  0.01212121  0.00000000       0.000
   0.00000000  0.00000000  0.00000000       0.000
 
 position of ions in fractional coordinates (direct lattice) 
   0.00000000  0.00000000  0.50000000
   0.33333334  0.33333334  0.50000000
 
 position of ions in cartesian coordinates  (Angst):
   0.00000000  0.00000000  6.00000000
   1.23406666  0.71248872  6.00000000
 


--------------------------------------------------------------------------------------------------------


 k-point   1 :   0.0000 0.0000 0.0000  plane waves:    1707
 k-point   2 :   0.0556 0.0000 0.0000  plane waves:    1710
 k-point   3 :   0.1111 0.0000 0.0000  plane waves:    1720
 k-point   4 :   0.1667 0.0000 0.0000  plane waves:    1722
 k-point   5 :   0.2222 0.0000 0.0000  plane waves:    1724
 k-point   6 :   0.2778 0.0000 0.0000  plane waves:    1728
 k-point   7 :   0.3333 0.0000 0.0000  plane waves:    1710
 k-point   8 :   0.3889 0.0000 0.0000  plane waves:    1694
 k-point   9 :   0.4444 0.0000 0.0000  plane waves:    1698
 k-point  10 :   0.5000 0.0000 0.0000  plane waves:    1692
 k-point  11 :   0.1111 0.0556 0.0000  plane waves:    1723
 k-point  12 :   0.1667 0.0556 0.0000  plane waves:    1717
 k-point  13 :   0.2222 0.0556 0.0000  plane waves:    1728
 k-point  14 :   0.2778 0.0556 0.0000  plane waves:    1722
 k-point  15 :   0.3333 0.0556 0.0000  plane waves:    1722
 k-point  16 :   0.3889 0.0556 0.0000  plane waves:    1698
 k-point  17 :   0.4444 0.0556 0.0000  plane waves:    1691
 k-point  18 :   0.5000 0.0556 0.0000  plane waves:    1704
 k-point  19 :   0.2222 0.1111 0.0000  plane waves:    1707
 k-point  20 :   0.2778 0.1111 0.0000  plane waves:    1717
 k-point  21 :   0.3333 0.1111 0.0000  plane waves:    1718
 k-point  22 :   0.3889 0.1111 0.0000  plane waves:    1712
 k-point  23 :   0.4444 0.1111 0.0000  plane waves:    1702
 k-point  24 :   0.5000 0.1111 0.0000  plane waves:    1697
 k-point  25 :  -0.4444 0.1111 0.0000  plane waves:    1696
 k-point  26 :   0.3333 0.1667 0.0000  plane waves:    1727
 k-point  27 :   0.3889 0.1667 0.0000  plane waves:    1709
 k-point  28 :   0.4444 0.1667 0.0000  plane waves:    1694
 k-point  29 :   0.5000 0.1667 0.0000  plane waves:    1695
 k-point  30 :  -0.4444 0.1667 0.0000  plane waves:    1691
 k-point  31 :   0.4444 0.2222 0.0000  plane waves:    1689
 k-point  32 :   0.5000 0.2222 0.0000  plane waves:    1693
 k-point  33 :  -0.4444 0.2222 0.0000  plane waves:    1685
 k-point  34 :  -0.3889 0.2222 0.0000  plane waves:    1688
 k-point  35 :  -0.4444 0.2778 0.0000  plane waves:    1683
 k-point  36 :  -0.3889 0.2778 0.0000  plane waves:    1684
 k-point  37 :  -0.3333 0.3333 0.0000  plane waves:    1698
 k-point  38 :   0.0000 0.0000 0.0000  plane waves:    1707
 k-point  39 :   0.0106 0.0106 0.0000  plane waves:    1711
 k-point  40 :   0.0213 0.0213 0.0000  plane waves:    1711
 k-point  41 :   0.0319 0.0319 0.0000  plane waves:    1714
 k-point  42 :   0.0426 0.0426 0.0000  plane waves:    1708
 k-point  43 :   0.0532 0.0532 0.0000  plane waves:    1706
 k-point  44 :   0.0638 0.0638 0.0000  plane waves:    1718
 k-point  45 :   0.0745 0.0745 0.0000  plane waves:    1718
 k-point  46 :   0.0851 0.0851 0.0000  plane waves:    1728
 k-point  47 :   0.0957 0.0957 0.0000  plane waves:    1728
 k-point  48 :   0.1064 0.1064 0.0000  plane waves:    1728
 k-point  49 :   0.1170 0.1170 0.0000  plane waves:    1720
 k-point  50 :   0.1277 0.1277 0.0000  plane waves:    1730
 k-point  51 :   0.1383 0.1383 0.0000  plane waves:    1730
 k-point  52 :   0.1489 0.1489 0.0000  plane waves:    1726
 k-point  53 :   0.1596 0.1596 0.0000  plane waves:    1726
 k-point  54 :   0.1702 0.1702 0.0000  plane waves:    1722
 k-point  55 :   0.1809 0.1809 0.0000  plane waves:    1720
 k-point  56 :   0.1915 0.1915 0.0000  plane waves:    1720
 k-point  57 :   0.2021 0.2021 0.0000  plane waves:    1716
 k-point  58 :   0.2128 0.2128 0.0000  plane waves:    1720
 k-point  59 :   0.2234 0.2234 0.0000  plane waves:    1724
 k-point  60 :   0.2340 0.2340 0.0000  plane waves:    1722
 k-point  61 :   0.2447 0.2447 0.0000  plane waves:    1720
 k-point  62 :   0.2553 0.2553 0.0000  plane waves:    1720
 k-point  63 :   0.2660 0.2660 0.0000  plane waves:    1724
 k-point  64 :   0.2766 0.2766 0.0000  plane waves:    1728
 k-point  65 :   0.2872 0.2872 0.0000  plane waves:    1724
 k-point  66 :   0.2979 0.2979 0.0000  plane waves:    1726
 k-point  67 :   0.3085 0.3085 0.0000  plane waves:    1726
 k-point  68 :   0.3191 0.3191 0.0000  plane waves:    1718
 k-point  69 :   0.3298 0.3298 0.0000  plane waves:    1710
 k-point  70 :   0.3404 0.3404 0.0000  plane waves:    1712
 k-point  71 :   0.3511 0.3511 0.0000  plane waves:    1702
 k-point  72 :   0.3617 0.3617 0.0000  plane waves:    1698
 k-point  73 :   0.3723 0.3723 0.0000  plane waves:    1700
 k-point  74 :   0.3830 0.3830 0.0000  plane waves:    1686
 k-point  75 :   0.3936 0.3936 0.0000  plane waves:    1694
 k-point  76 :   0.4043 0.4043 0.0000  plane waves:    1690
 k-point  77 :   0.4149 0.4149 0.0000  plane waves:    1690
 k-point  78 :   0.4255 0.4255 0.0000  plane waves:    1684
 k-point  79 :   0.4362 0.4362 0.0000  plane waves:    1694
 k-point  80 :   0.4468 0.4468 0.0000  plane waves:    1698
 k-point  81 :   0.4574 0.4574 0.0000  plane waves:    1700
 k-point  82 :   0.4681 0.4681 0.0000  plane waves:    1690
 k-point  83 :   0.4787 0.4787 0.0000  plane waves:    1690
 k-point  84 :   0.4894 0.4894 0.0000  plane waves:    1686
 k-point  85 :   0.5000 0.5000 0.0000  plane waves:    1692
 k-point  86 :   0.5000 0.5000 0.0000  plane waves:    1692
 k-point  87 :   0.4938 0.5062 0.0000  plane waves:    1690
 k-point  88 :   0.4877 0.5123 0.0000  plane waves:    1694
 k-point  89 :   0.4815 0.5185 0.0000  plane waves:    1692
 k-point  90 :   0.4753 0.5247 0.0000  plane waves:    1700
 k-point  91 :   0.4691 0.5309 0.0000  plane waves:    1700
 k-point  92 :   0.4630 0.5370 0.0000  plane waves:    1700
 k-point  93 :   0.4568 0.5432 0.0000  plane waves:    1704
 k-point  94 :   0.4506 0.5494 0.0000  plane waves:    1700
 k-point  95 :   0.4444 0.5556 0.0000  plane waves:    1696
 k-point  96 :   0.4383 0.5617 0.0000  plane waves:    1692
 k-point  97 :   0.4321 0.5679 0.0000  plane waves:    1692
 k-point  98 :   0.4259 0.5741 0.0000  plane waves:    1692
 k-point  99 :   0.4198 0.5802 0.0000  plane waves:    1688
 k-point 100 :   0.4136 0.5864 0.0000  plane waves:    1684
 k-point 101 :   0.4074 0.5926 0.0000  plane waves:    1690
 k-point 102 :   0.4012 0.5988 0.0000  plane waves:    1686
 k-point 103 :   0.3951 0.6049 0.0000  plane waves:    1684
 k-point 104 :   0.3889 0.6111 0.0000  plane waves:    1688
 k-point 105 :   0.3827 0.6173 0.0000  plane waves:    1684
 k-point 106 :   0.3765 0.6235 0.0000  plane waves:    1678
 k-point 107 :   0.3704 0.6296 0.0000  plane waves:    1676
 k-point 108 :   0.3642 0.6358 0.0000  plane waves:    1680
 k-point 109 :   0.3580 0.6420 0.0000  plane waves:    1688
 k-point 110 :   0.3519 0.6481 0.0000  plane waves:    1690
 k-point 111 :   0.3457 0.6543 0.0000  plane waves:    1690
 k-point 112 :   0.3395 0.6605 0.0000  plane waves:    1690
 k-point 113 :   0.3333 0.6667 0.0000  plane waves:    1698
 k-point 114 :   0.3333 0.6667 0.0000  plane waves:    1698
 k-point 115 :   0.3273 0.6545 0.0000  plane waves:    1694
 k-point 116 :   0.3212 0.6424 0.0000  plane waves:    1698
 k-point 117 :   0.3152 0.6303 0.0000  plane waves:    1694
 k-point 118 :   0.3091 0.6182 0.0000  plane waves:    1694
 k-point 119 :   0.3030 0.6061 0.0000  plane waves:    1682
 k-point 120 :   0.2970 0.5939 0.0000  plane waves:    1684
 k-point 121 :   0.2909 0.5818 0.0000  plane waves:    1683
 k-point 122 :   0.2848 0.5697 0.0000  plane waves:    1681
 k-point 123 :   0.2788 0.5576 0.0000  plane waves:    1683
 k-point 124 :   0.2727 0.5455 0.0000  plane waves:    1685
 k-point 125 :   0.2667 0.5333 0.0000  plane waves:    1689
 k-point 126 :   0.2606 0.5212 0.0000  plane waves:    1689
 k-point 127 :   0.2545 0.5091 0.0000  plane waves:    1699
 k-point 128 :   0.2485 0.4970 0.0000  plane waves:    1695
 k-point 129 :   0.2424 0.4848 0.0000  plane waves:    1691
 k-point 130 :   0.2364 0.4727 0.0000  plane waves:    1691
 k-point 131 :   0.2303 0.4606 0.0000  plane waves:    1693
 k-point 132 :   0.2242 0.4485 0.0000  plane waves:    1691
 k-point 133 :   0.2182 0.4364 0.0000  plane waves:    1699
 k-point 134 :   0.2121 0.4242 0.0000  plane waves:    1697
 k-point 135 :   0.2061 0.4121 0.0000  plane waves:    1707
 k-point 136 :   0.2000 0.4000 0.0000  plane waves:    1709
 k-point 137 :   0.1939 0.3879 0.0000  plane waves:    1709
 k-point 138 :   0.1879 0.3758 0.0000  plane waves:    1713
 k-point 139 :   0.1818 0.3636 0.0000  plane waves:    1721
 k-point 140 :   0.1758 0.3515 0.0000  plane waves:    1723
 k-point 141 :   0.1697 0.3394 0.0000  plane waves:    1727
 k-point 142 :   0.1636 0.3273 0.0000  plane waves:    1727
 k-point 143 :   0.1576 0.3152 0.0000  plane waves:    1727
 k-point 144 :   0.1515 0.3030 0.0000  plane waves:    1719
 k-point 145 :   0.1455 0.2909 0.0000  plane waves:    1711
 k-point 146 :   0.1394 0.2788 0.0000  plane waves:    1713
 k-point 147 :   0.1333 0.2667 0.0000  plane waves:    1707
 k-point 148 :   0.1273 0.2545 0.0000  plane waves:    1715
 k-point 149 :   0.1212 0.2424 0.0000  plane waves:    1715
 k-point 150 :   0.1152 0.2303 0.0000  plane waves:    1707
 k-point 151 :   0.1091 0.2182 0.0000  plane waves:    1707
 k-point 152 :   0.1030 0.2061 0.0000  plane waves:    1711
 k-point 153 :   0.0970 0.1939 0.0000  plane waves:    1721
 k-point 154 :   0.0909 0.1818 0.0000  plane waves:    1721
 k-point 155 :   0.0848 0.1697 0.0000  plane waves:    1713
 k-point 156 :   0.0788 0.1576 0.0000  plane waves:    1717
 k-point 157 :   0.0727 0.1455 0.0000  plane waves:    1721
 k-point 158 :   0.0667 0.1333 0.0000  plane waves:    1725
 k-point 159 :   0.0606 0.1212 0.0000  plane waves:    1727
 k-point 160 :   0.0545 0.1091 0.0000  plane waves:    1727
 k-point 161 :   0.0485 0.0970 0.0000  plane waves:    1729
 k-point 162 :   0.0424 0.0848 0.0000  plane waves:    1725
 k-point 163 :   0.0364 0.0727 0.0000  plane waves:    1713
 k-point 164 :   0.0303 0.0606 0.0000  plane waves:    1713
 k-point 165 :   0.0242 0.0485 0.0000  plane waves:    1713
 k-point 166 :   0.0182 0.0364 0.0000  plane waves:    1713
 k-point 167 :   0.0121 0.0242 0.0000  plane waves:    1713
 k-point 168 :   0.0061 0.0121 0.0000  plane waves:    1709
 k-point 169 :   0.0000 0.0000 0.0000  plane waves:    1707

 maximum and minimum number of plane-waves per node :      1730     1676

 maximum number of plane-waves:      1730
 maximum index in each direction: 
   IXMAX=    5   IYMAX=    4   IZMAX=   22
   IXMIN=   -5   IYMIN=   -5   IZMIN=  -22


 serial   3D FFT for wavefunctions
 parallel 3D FFT for charge:
    minimum data exchange during FFTs selected (reduces bandwidth)


 total amount of memory used by VASP MPI-rank0    55984. kBytes
=======================================================================

   base      :      30000. kBytes
   nonl-proj :      18875. kBytes
   fftplans  :        519. kBytes
   grid      :       1798. kBytes
   one-center:          6. kBytes
   wavefun   :       4786. kBytes
 
     INWAV:  cpu time      0.0000: real time      0.0000
 Broyden mixing: mesh for mixing (old mesh)
   NGX =  9   NGY =  9   NGZ = 45
  (NGX  = 36   NGY  = 36   NGZ  =180)
  gives a total of   3645 points

 initial charge density was supplied:
 charge density of overlapping atoms calculated
 number of electron       8.0000000 magnetization 
 keeping initial charge density in first step


--------------------------------------------------------------------------------------------------------


 Maximum index for augmentation-charges          588 (set IRDMAX)


--------------------------------------------------------------------------------------------------------


 First call to EWALD:  gamma=   0.445
 Maximum number of real-space cells 5x 5x 1
 Maximum number of reciprocal cells 2x 2x 7

    FEWALD:  cpu time      0.0017: real time      0.0028


--------------------------------------- Iteration      1(   1)  ---------------------------------------


    POTLOK:  cpu time      0.0112: real time      0.0280
    SETDIJ:  cpu time      0.0023: real time      0.0058
     EDDAV:  cpu time      3.5412: real time      3.5527
       DOS:  cpu time      0.0040: real time      0.0101
    --------------------------------------------
      LOOP:  cpu time      3.5587: real time      3.5966

 eigenvalue-minimisations  : 10140
 total energy-change (2. order) :-0.2808869E+01  (-0.4317045E+03)
 number of electron       8.0000000 magnetization 
 augmentation part        8.0000000 magnetization 

 Free energy of the ion-electron system (eV)
  ---------------------------------------------------
  alpha Z        PSCENC =         5.19040345
  Ewald energy   TEWEN  =       560.32934460
  -Hartree energ DENC   =      -785.47972126
  -exchange      EXHF   =         0.00000000
  -V(xc)+E(xc)   XCENC  =        26.34816653
  PAW double counting   =       217.04409276     -218.18290438
  entropy T*S    EENTRO =        -0.00000000
  eigenvalues    EBANDS =      -102.35603775
  atomic energy  EATOM  =       294.29778662
  Solvation  Ediel_sol  =         0.00000000
  ---------------------------------------------------
  free energy    TOTEN  =        -2.80886943 eV

  energy without entropy =       -2.80886943  energy(sigma->0) =       -2.80886943


--------------------------------------------------------------------------------------------------------




--------------------------------------- Iteration      1(   2)  ---------------------------------------


     EDDAV:  cpu time      6.9639: real time      6.9740
       DOS:  cpu time      0.0018: real time      0.0018
    --------------------------------------------
      LOOP:  cpu time      6.9657: real time      6.9757

 eigenvalue-minimisations  : 15060
 total energy-change (2. order) :-0.1685510E+02  (-0.1685483E+02)
 number of electron       8.0000000 magnetization 
 augmentation part        8.0000000 magnetization 

 Free energy of the ion-electron system (eV)
  ---------------------------------------------------
  alpha Z        PSCENC =         5.19040345
  Ewald energy   TEWEN  =       560.32934460
  -Hartree energ DENC   =      -785.47972126
  -exchange      EXHF   =         0.00000000
  -V(xc)+E(xc)   XCENC  =        26.34816653
  PAW double counting   =       217.04409276     -218.18290438
  entropy T*S    EENTRO =        -0.00034224
  eigenvalues    EBANDS =      -119.21079663
  atomic energy  EATOM  =       294.29778662
  Solvation  Ediel_sol  =         0.00000000
  ---------------------------------------------------
  free energy    TOTEN  =       -19.66397054 eV

  energy without entropy =      -19.66362831  energy(sigma->0) =      -19.66379942


--------------------------------------------------------------------------------------------------------




--------------------------------------- Iteration      1(   3)  ---------------------------------------


     EDDAV:  cpu time      4.1249: real time      4.1309
       DOS:  cpu time      0.0018: real time      0.0018
    --------------------------------------------
      LOOP:  cpu time      4.1268: real time      4.1328

 eigenvalue-minimisations  : 10950
 total energy-change (2. order) :-0.4825732E-01  (-0.4825133E-01)
 number of electron       8.0000000 magnetization 
 augmentation part        8.0000000 magnetization 

 Free energy of the ion-electron system (eV)
  ---------------------------------------------------
  alpha Z        PSCENC =         5.19040345
  Ewald energy   TEWEN  =       560.32934460
  -Hartree energ DENC   =      -785.47972126
  -exchange      EXHF   =         0.00000000
  -V(xc)+E(xc)   XCENC  =        26.34816653
  PAW double counting   =       217.04409276     -218.18290438
  entropy T*S    EENTRO =        -0.00034827
  eigenvalues    EBANDS =      -119.25904792
  atomic energy  EATOM  =       294.29778662
  Solvation  Ediel_sol  =         0.00000000
  ---------------------------------------------------
  free energy    TOTEN  =       -19.71222786 eV

  energy without entropy =      -19.71187960  energy(sigma->0) =      -19.71205373


--------------------------------------------------------------------------------------------------------




--------------------------------------- Iteration      1(   4)  ---------------------------------------


     EDDAV:  cpu time     10.5958: real time     10.6048
       DOS:  cpu time      0.0019: real time      0.0019
    --------------------------------------------
      LOOP:  cpu time     10.5977: real time     10.6067

 eigenvalue-minimisations  : 18630
 total energy-change (2. order) :-0.1371685E-03  (-0.1371680E-03)
 number of electron       8.0000000 magnetization 
 augmentation part        8.0000000 magnetization 

 Free energy of the ion-electron system (eV)
  ---------------------------------------------------
  alpha Z        PSCENC =         5.19040345
  Ewald energy   TEWEN  =       560.32934460
  -Hartree energ DENC   =      -785.47972126
  -exchange      EXHF   =         0.00000000
  -V(xc)+E(xc)   XCENC  =        26.34816653
  PAW double counting   =       217.04409276     -218.18290438
  entropy T*S    EENTRO =        -0.00034827
  eigenvalues    EBANDS =      -119.25918509
  atomic energy  EATOM  =       294.29778662
  Solvation  Ediel_sol  =         0.00000000
  ---------------------------------------------------
  free energy    TOTEN  =       -19.71236503 eV

  energy without entropy =      -19.71201677  energy(sigma->0) =      -19.71219090


--------------------------------------------------------------------------------------------------------




--------------------------------------- Iteration      1(   5)  ---------------------------------------


     EDDAV:  cpu time      4.1196: real time      4.1206
       DOS:  cpu time      0.0019: real time      0.0019
    CHARGE:  cpu time      0.0324: real time      0.0434
    MIXING:  cpu time      0.0020: real time      0.0092
    --------------------------------------------
      LOOP:  cpu time      4.1559: real time      4.1752

 eigenvalue-minimisations  : 10950
 total energy-change (2. order) :-0.1695502E-06  (-0.1696904E-06)
 number of electron       7.9999996 magnetization 
 augmentation part        0.2133402 magnetization 

 Broyden mixing:
  rms(total) = 0.62872E+00    rms(broyden)= 0.62865E+00
  rms(prec ) = 0.74379E+00
  weight for this iteration     100.00

 Free energy of the ion-electron system (eV)
  ---------------------------------------------------
  alpha Z        PSCENC =         5.19040345
  Ewald energy   TEWEN  =       560.32934460
  -Hartree energ DENC   =      -785.47972126
  -exchange      EXHF   =         0.00000000
  -V(xc)+E(xc)   XCENC  =        26.34816653
  PAW double counting   =       217.04409276     -218.18290438
  entropy T*S    EENTRO =        -0.00034827
  eigenvalues    EBANDS =      -119.25918526
  atomic energy  EATOM  =       294.29778662
  Solvation  Ediel_sol  =         0.00000000
  ---------------------------------------------------
  free energy    TOTEN  =       -19.71236520 eV

  energy without entropy =      -19.71201694  energy(sigma->0) =      -19.71219107


--------------------------------------------------------------------------------------------------------




--------------------------------------- Iteration      1(   6)  ---------------------------------------


    POTLOK:  cpu time      0.0098: real time      0.0099
    SETDIJ:  cpu time      0.0016: real time      0.0016
     EDDAV:  cpu time      6.0413: real time      6.0600
       DOS:  cpu time      0.0020: real time      0.0020
    CHARGE:  cpu time      0.0314: real time      0.0314
    MIXING:  cpu time      0.0035: real time      0.0050
    --------------------------------------------
      LOOP:  cpu time      6.0896: real time      6.1099

 eigenvalue-minimisations  : 13290
 total energy-change (2. order) : 0.9043105E+00  (-0.8840522E-01)
 number of electron       7.9999997 magnetization 
 augmentation part        0.2031592 magnetization 

 Broyden mixing:
  rms(total) = 0.37176E+00    rms(broyden)= 0.37176E+00
  rms(prec ) = 0.42947E+00
  weight for this iteration     100.00

 eigenvalues of (default mixing * dielectric matrix)
  average eigenvalue GAMMA=   2.1966
  2.1966

 Free energy of the ion-electron system (eV)
  ---------------------------------------------------
  alpha Z        PSCENC =         5.19040345
  Ewald energy   TEWEN  =       560.32934460
  -Hartree energ DENC   =      -796.17905212
  -exchange      EXHF   =         0.00000000
  -V(xc)+E(xc)   XCENC  =        26.82448623
  PAW double counting   =       397.81848136     -399.10841018
  entropy T*S    EENTRO =        -0.00034827
  eigenvalues    EBANDS =      -107.98074640
  atomic energy  EATOM  =       294.29778662
  Solvation  Ediel_sol  =         0.00000000
  ---------------------------------------------------
  free energy    TOTEN  =       -18.80805470 eV

  energy without entropy =      -18.80770643  energy(sigma->0) =      -18.80788056


--------------------------------------------------------------------------------------------------------




--------------------------------------- Iteration      1(   7)  ---------------------------------------


    POTLOK:  cpu time      0.0094: real time      0.0097
    SETDIJ:  cpu time      0.0016: real time      0.0016
     EDDAV:  cpu time      6.2009: real time      6.2269
       DOS:  cpu time      0.0019: real time      0.0019
    CHARGE:  cpu time      0.0316: real time      0.0317
    MIXING:  cpu time      0.0005: real time      0.0005
    --------------------------------------------
      LOOP:  cpu time      6.2460: real time      6.2723

 eigenvalue-minimisations  : 13170
 total energy-change (2. order) : 0.3491016E+00  (-0.1132446E+00)
 number of electron       7.9999997 magnetization 
 augmentation part        0.1918986 magnetization 

 Broyden mixing:
  rms(total) = 0.94448E-01    rms(broyden)= 0.94418E-01
  rms(prec ) = 0.10481E+00
  weight for this iteration     100.00

 eigenvalues of (default mixing * dielectric matrix)
  average eigenvalue GAMMA=   2.1463
  2.1463  2.1463

 Free energy of the ion-electron system (eV)
  ---------------------------------------------------
  alpha Z        PSCENC =         5.19040345
  Ewald energy   TEWEN  =       560.32934460
  -Hartree energ DENC   =      -810.29986429
  -exchange      EXHF   =         0.00000000
  -V(xc)+E(xc)   XCENC  =        27.45353296
  PAW double counting   =       749.42341222     -750.84500720
  entropy T*S    EENTRO =        -0.00034827
  eigenvalues    EBANDS =       -94.00821316
  atomic energy  EATOM  =       294.29778662
  Solvation  Ediel_sol  =         0.00000000
  ---------------------------------------------------
  free energy    TOTEN  =       -18.45895306 eV

  energy without entropy =      -18.45860480  energy(sigma->0) =      -18.45877893


--------------------------------------------------------------------------------------------------------




--------------------------------------- Iteration      1(   8)  ---------------------------------------


    POTLOK:  cpu time      0.0106: real time      0.0107
    SETDIJ:  cpu time      0.0016: real time      0.0016
     EDDAV:  cpu time      9.2299: real time      9.3843
       DOS:  cpu time      0.0015: real time      0.0035
    CHARGE:  cpu time      0.0313: real time      0.0313
    MIXING:  cpu time      0.0005: real time      0.0005
    --------------------------------------------
      LOOP:  cpu time      9.2754: real time      9.4319

 eigenvalue-minimisations  : 16260
 total energy-change (2. order) : 0.8397440E-02  (-0.7111865E-03)
 number of electron       7.9999997 magnetization 
 augmentation part        0.1922463 magnetization 

 Broyden mixing:
  rms(total) = 0.10164E-01    rms(broyden)= 0.10155E-01
  rms(prec ) = 0.29325E-01
  weight for this iteration     100.00

 eigenvalues of (default mixing * dielectric matrix)
  average eigenvalue GAMMA=   1.9580
  1.4379  2.3726  2.0636

 Free energy of the ion-electron system (eV)
  ---------------------------------------------------
  alpha Z        PSCENC =         5.19040345
  Ewald energy   TEWEN  =       560.32934460
  -Hartree energ DENC   =      -812.09053793
  -exchange      EXHF   =         0.00000000
  -V(xc)+E(xc)   XCENC  =        27.46868435
  PAW double counting   =       833.38917328     -834.76113808
  entropy T*S    EENTRO =        -0.00034827
  eigenvalues    EBANDS =       -92.27392365
  atomic energy  EATOM  =       294.29778662
  Solvation  Ediel_sol  =         0.00000000
  ---------------------------------------------------
  free energy    TOTEN  =       -18.45055562 eV

  energy without entropy =      -18.45020736  energy(sigma->0) =      -18.45038149


--------------------------------------------------------------------------------------------------------




--------------------------------------- Iteration      1(   9)  ---------------------------------------


    POTLOK:  cpu time      0.0097: real time      0.0108
    SETDIJ:  cpu time      0.0016: real time      0.0016
     EDDAV:  cpu time      7.5515: real time      7.5581
       DOS:  cpu time      0.0019: real time      0.0019
    CHARGE:  cpu time      0.0312: real time      0.0312
    MIXING:  cpu time      0.0004: real time      0.0004
    --------------------------------------------
      LOOP:  cpu time      7.5962: real time      7.6039

 eigenvalue-minimisations  : 15300
 total energy-change (2. order) : 0.2833959E-02  (-0.1493111E-03)
 number of electron       7.9999997 magnetization 
 augmentation part        0.1919693 magnetization 

 Broyden mixing:
  rms(total) = 0.80470E-02    rms(broyden)= 0.80456E-02
  rms(prec ) = 0.22012E-01
  weight for this iteration     100.00

 eigenvalues of (default mixing * dielectric matrix)
  average eigenvalue GAMMA=   2.1709
  3.3706  0.9435  2.3936  1.9758

 Free energy of the ion-electron system (eV)
  ---------------------------------------------------
  alpha Z        PSCENC =         5.19040345
  Ewald energy   TEWEN  =       560.32934460
  -Hartree energ DENC   =      -813.50591492
  -exchange      EXHF   =         0.00000000
  -V(xc)+E(xc)   XCENC  =        27.49616824
  PAW double counting   =       841.03867179     -842.40778567
  entropy T*S    EENTRO =        -0.00034827
  eigenvalues    EBANDS =       -90.88604751
  atomic energy  EATOM  =       294.29778662
  Solvation  Ediel_sol  =         0.00000000
  ---------------------------------------------------
  free energy    TOTEN  =       -18.44772166 eV

  energy without entropy =      -18.44737340  energy(sigma->0) =      -18.44754753


--------------------------------------------------------------------------------------------------------




--------------------------------------- Iteration      1(  10)  ---------------------------------------


    POTLOK:  cpu time      0.0089: real time      0.0092
    SETDIJ:  cpu time      0.0016: real time      0.0016
     EDDAV:  cpu time      6.3848: real time      6.4125
       DOS:  cpu time      0.0020: real time      0.0020
    CHARGE:  cpu time      0.0492: real time      0.0492
[...]
      6       3.0328      0.00000
      7       3.8926      0.00000
      8       6.7618      0.00000
      9       7.0030      0.00000
     10       7.6668      0.00000
     11       8.2655      0.00000
     12       8.5843      0.00000
     13      11.3183      0.00000
     14      13.1939      0.00000
     15      15.0693      0.00000
     16      20.9526      0.00000
     17      21.6196      0.00000
     18      23.5752      0.00000
     19      24.1478      0.00000
     20      24.9239      0.00000
     21      27.9395      0.00000
     22      28.1220      0.00000
     23      28.3588      0.00000
     24      29.8416      0.00000
     25      29.9477      0.00000
     26      30.0606      0.00000
     27      30.2401      0.00000
     28      32.4604      0.00000
     29      32.4846      0.00000
     30      33.8798      0.00000

 k-point   159 :       0.0606    0.1212    0.0000
  band No.  band energies     occupation 
      1     -20.9898      2.00000
      2      -9.0458      2.00000
      3      -5.7566      2.00000
      4      -5.3411      2.00000
      5       1.8171      0.00000
      6       2.9586      0.00000
      7       3.8180      0.00000
      8       6.7213      0.00000
      9       6.9309      0.00000
     10       7.5057      0.00000
     11       8.1906      0.00000
     12       8.7565      0.00000
     13      11.1968      0.00000
     14      13.1300      0.00000
     15      14.9972      0.00000
     16      21.0038      0.00000
     17      21.4802      0.00000
     18      23.8876      0.00000
     19      24.0752      0.00000
     20      25.0909      0.00000
     21      28.0885      0.00000
     22      28.4379      0.00000
     23      28.8399      0.00000
     24      30.3074      0.00000
     25      30.3926      0.00000
     26      30.5712      0.00000
     27      30.7326      0.00000
     28      32.1801      0.00000
     29      32.4935      0.00000
     30      34.0589      0.00000

 k-point   160 :       0.0545    0.1091    0.0000
  band No.  band energies     occupation 
      1     -21.0391      2.00000
      2      -9.1044      2.00000
      3      -5.5883      2.00000
      4      -5.2391      2.00000
      5       1.7499      0.00000
      6       2.8914      0.00000
      7       3.7504      0.00000
      8       6.6856      0.00000
      9       6.8655      0.00000
     10       7.3490      0.00000
     11       8.1225      0.00000
     12       8.9151      0.00000
     13      11.0908      0.00000
     14      13.0716      0.00000
     15      14.9318      0.00000
     16      21.0303      0.00000
     17      21.3467      0.00000
     18      24.0100      0.00000
     19      24.2273      0.00000
     20      25.2584      0.00000
     21      28.0635      0.00000
     22      28.9429      0.00000
     23      29.3292      0.00000
     24      30.7832      0.00000
     25      30.8117      0.00000
     26      31.0886      0.00000
     27      31.2314      0.00000
     28      31.8587      0.00000
     29      32.4896      0.00000
     30      34.1501      0.00000

 k-point   161 :       0.0485    0.0970    0.0000
  band No.  band energies     occupation 
      1     -21.0833      2.00000
      2      -9.1570      2.00000
      3      -5.4321      2.00000
      4      -5.1465      2.00000
      5       1.6898      0.00000
      6       2.8313      0.00000
      7       3.6900      0.00000
      8       6.6545      0.00000
      9       6.8070      0.00000
     10       7.1993      0.00000
     11       8.0615      0.00000
     12       9.0597      0.00000
     13      10.9994      0.00000
     14      13.0191      0.00000
     15      14.8731      0.00000
     16      21.0407      0.00000
     17      21.2213      0.00000
     18      23.9521      0.00000
     19      24.5817      0.00000
     20      25.4266      0.00000
     21      28.0528      0.00000
     22      29.4543      0.00000
     23      29.8252      0.00000
     24      31.1562      0.00000
     25      31.2604      0.00000
     26      31.5359      0.00000
     27      31.6126      0.00000
     28      31.7348      0.00000
     29      32.5214      0.00000
     30      34.1864      0.00000

 k-point   162 :       0.0424    0.0848    0.0000
  band No.  band energies     occupation 
      1     -21.1223      2.00000
      2      -9.2034      2.00000
      3      -5.2895      2.00000
      4      -5.0639      2.00000
      5       1.6367      0.00000
      6       2.7783      0.00000
      7       3.6367      0.00000
      8       6.6278      0.00000
      9       6.7554      0.00000
     10       7.0595      0.00000
     11       8.0074      0.00000
     12       9.1894      0.00000
     13      10.9214      0.00000
     14      12.9725      0.00000
     15      14.8213      0.00000
     16      21.0411      0.00000
     17      21.1064      0.00000
     18      23.9013      0.00000
     19      24.9385      0.00000
     20      25.5944      0.00000
     21      28.0624      0.00000
     22      29.9716      0.00000
     23      30.3269      0.00000
     24      31.1911      0.00000
     25      31.3420      0.00000
     26      31.7726      0.00000
     27      32.1426      0.00000
     28      32.2400      0.00000
     29      32.6671      0.00000
     30      34.2007      0.00000

 k-point   163 :       0.0364    0.0727    0.0000
  band No.  band energies     occupation 
      1     -21.1560      2.00000
      2      -9.2436      2.00000
      3      -5.1619      2.00000
      4      -4.9915      2.00000
      5       1.5908      0.00000
      6       2.7323      0.00000
      7       3.5905      0.00000
      8       6.6054      0.00000
      9       6.7106      0.00000
     10       6.9320      0.00000
     11       7.9604      0.00000
     12       9.3035      0.00000
     13      10.8558      0.00000
     14      12.9320      0.00000
     15      14.7762      0.00000
     16      21.0035      0.00000
     17      21.0359      0.00000
     18      23.8575      0.00000
     19      25.2848      0.00000
     20      25.7598      0.00000
     21      28.0995      0.00000
     22      30.4944      0.00000
     23      30.8326      0.00000
     24      30.8820      0.00000
     25      31.3252      0.00000
     26      32.2697      0.00000
     27      32.6778      0.00000
     28      32.7413      0.00000
     29      32.9592      0.00000
     30      34.1870      0.00000

 k-point   164 :       0.0303    0.0606    0.0000
  band No.  band energies     occupation 
      1     -21.1846      2.00000
      2      -9.2777      2.00000
      3      -5.0509      2.00000
      4      -4.9297      2.00000
      5       1.5519      0.00000
      6       2.6934      0.00000
      7       3.5514      0.00000
      8       6.5868      0.00000
      9       6.6726      0.00000
     10       6.8194      0.00000
     11       7.9205      0.00000
     12       9.4012      0.00000
     13      10.8019      0.00000
     14      12.8975      0.00000
     15      14.7380      0.00000
     16      20.9141      0.00000
     17      21.0278      0.00000
     18      23.8206      0.00000
     19      25.6059      0.00000
     20      25.9194      0.00000
     21      28.1731      0.00000
     22      30.5930      0.00000
     23      31.0220      0.00000
     24      31.1575      0.00000
     25      31.3398      0.00000
     26      32.7723      0.00000
     27      33.2154      0.00000
     28      33.2227      0.00000
     29      33.3205      0.00000
     30      34.1588      0.00000

 k-point   165 :       0.0242    0.0485    0.0000
  band No.  band energies     occupation 
      1     -21.2080      2.00000
      2      -9.3057      2.00000
      3      -4.9579      2.00000
      4      -4.8788      2.00000
      5       1.5201      0.00000
      6       2.6615      0.00000
      7       3.5195      0.00000
      8       6.5719      0.00000
      9       6.6416      0.00000
     10       6.7239      0.00000
     11       7.8878      0.00000
     12       9.4819      0.00000
     13      10.7587      0.00000
     14      12.8693      0.00000
     15      14.7067      0.00000
     16      20.8394      0.00000
     17      21.0192      0.00000
     18      23.7905      0.00000
     19      25.8858      0.00000
     20      26.0681      0.00000
     21      28.2933      0.00000
     22      30.3345      0.00000
     23      30.8994      0.00000
     24      31.5529      0.00000
     25      31.8447      0.00000
     26      33.2735      0.00000
     27      33.6167      0.00000
     28      33.6323      0.00000
     29      33.7426      0.00000
     30      34.1469      0.00000

 k-point   166 :       0.0182    0.0364    0.0000
  band No.  band energies     occupation 
      1     -21.2262      2.00000
      2      -9.3274      2.00000
      3      -4.8841      2.00000
      4      -4.8389      2.00000
      5       1.4953      0.00000
      6       2.6368      0.00000
      7       3.4946      0.00000
      8       6.5606      0.00000
      9       6.6174      0.00000
     10       6.6475      0.00000
     11       7.8623      0.00000
     12       9.5451      0.00000
     13      10.7258      0.00000
     14      12.8472      0.00000
     15      14.6824      0.00000
     16      20.7804      0.00000
     17      21.0113      0.00000
     18      23.7672      0.00000
     19      26.1100      0.00000
     20      26.1988      0.00000
     21      28.4667      0.00000
     22      30.1162      0.00000
     23      30.5895      0.00000
     24      32.0845      0.00000
     25      32.3402      0.00000
     26      33.7211      0.00000
     27      33.7635      0.00000
     28      33.8607      0.00000
     29      34.0506      0.00000
     30      34.3481      0.00000

 k-point   167 :       0.0121    0.0242    0.0000
  band No.  band energies     occupation 
      1     -21.2392      2.00000
      2      -9.3429      2.00000
      3      -4.8306      2.00000
      4      -4.8103      2.00000
      5       1.4776      0.00000
      6       2.6191      0.00000
      7       3.4768      0.00000
      8       6.5526      0.00000
      9       6.5917      0.00000
     10       6.6001      0.00000
     11       7.8440      0.00000
     12       9.5906      0.00000
     13      10.7026      0.00000
     14      12.8314      0.00000
     15      14.6649      0.00000
     16      20.7377      0.00000
     17      21.0050      0.00000
     18      23.7506      0.00000
     19      26.2694      0.00000
     20      26.3026      0.00000
     21      28.6881      0.00000
     22      29.9487      0.00000
     23      30.2600      0.00000
     24      32.6099      0.00000
     25      32.8102      0.00000
     26      33.7118      0.00000
     27      33.9262      0.00000
     28      34.0491      0.00000
     29      34.2199      0.00000
     30      34.7405      0.00000

 k-point   168 :       0.0061    0.0121    0.0000
  band No.  band energies     occupation 
      1     -21.2470      2.00000
      2      -9.3522      2.00000
      3      -4.7981      2.00000
      4      -4.7930      2.00000
      5       1.4670      0.00000
      6       2.6084      0.00000
      7       3.4662      0.00000
      8       6.5479      0.00000
      9       6.5578      0.00000
     10       6.5898      0.00000
     11       7.8330      0.00000
     12       9.6180      0.00000
     13      10.6888      0.00000
     14      12.8220      0.00000
     15      14.6545      0.00000
     16      20.7118      0.00000
     17      21.0011      0.00000
     18      23.7406      0.00000
     19      26.3630      0.00000
     20      26.3701      0.00000
     21      28.9240      0.00000
     22      29.8425      0.00000
     23      29.9573      0.00000
     24      33.1045      0.00000
     25      33.2105      0.00000
     26      33.6877      0.00000
     27      33.9204      0.00000
     28      33.9966      0.00000
     29      34.5421      0.00000
     30      34.5852      0.00000

 k-point   169 :       0.0000    0.0000    0.0000
  band No.  band energies     occupation 
      1    -128.6899      2.00000
      2     -21.2497      2.00000
      3      -9.3553      2.00000
      4      -4.7873      2.00000
      5      -4.7873      2.00000
      6       1.4635      0.00000
      7       2.6049      0.00000
      8       3.4626      0.00000
      9       6.5464      0.00000
     10       6.5464      0.00000
     11       6.5863      0.00000
     12       7.8294      0.00000
     13       9.6272      0.00000
     14      10.6841      0.00000
     15      12.8188      0.00000
     16      14.6510      0.00000
     17      20.7032      0.00000
     18      20.9997      0.00000
     19      23.7373      0.00000
     20      26.3936      0.00000
     21      26.3936      0.00000
     22      29.0528      0.00000
     23      29.8060      0.00000
     24      29.8060      0.00000
     25      33.4006      0.00000
     26      33.4006      0.00000
     27      33.6779      0.00000
     28      33.8938      0.00000
     29      33.8938      0.00000
     30      34.3650      0.00000


--------------------------------------------------------------------------------------------------------


 soft charge-density along one line, spin component           1
         0         1         2         3         4         5         6         7         8         9
 total charge-density along one line
 
 pseudopotential strength for first ion, spin component:           1
 10.158  13.508  -0.000   0.000  -0.000   0.000  -0.000   0.000
 13.508  17.960  -0.000   0.000  -0.000   0.000  -0.000   0.000
 -0.000  -0.000  -4.295  -0.000   0.000   8.400   0.000  -0.000
  0.000   0.000  -0.000  -4.287  -0.000   0.000   8.391   0.000
 -0.000  -0.000   0.000  -0.000  -4.295  -0.000   0.000   8.400
  0.000   0.000   8.400   0.000  -0.000 -18.565  -0.000   0.000
 -0.000  -0.000   0.000   8.391   0.000  -0.000 -18.556  -0.000
  0.000   0.000  -0.000   0.000   8.400   0.000  -0.000 -18.565
 total augmentation occupancy for first ion, spin component:           1
  8.016  -3.543   0.000   0.000   0.000   0.000   0.000  -0.000
 -3.543   1.624  -0.000   0.000  -0.000   0.000   0.000  -0.000
  0.000  -0.000   1.810   0.000  -0.000   0.166   0.000  -0.000
  0.000   0.000   0.000   1.189  -0.000   0.000   0.070  -0.000
  0.000   0.000  -0.000  -0.000   1.810  -0.000  -0.000   0.166
  0.000   0.000   0.166   0.000  -0.000   0.017   0.000  -0.000
  0.000   0.000   0.000   0.070   0.000  -0.000   0.005  -0.000
 -0.000   0.000  -0.000   0.000   0.166  -0.000   0.000   0.017


------------------------ aborting loop because EDIFF is reached ----------------------------------------


    CHARGE:  cpu time      0.0330: real time      0.0330
    FORLOC:  cpu time      0.0002: real time      0.0009
    FORNL :  cpu time      0.0796: real time      0.0820
    STRESS:  cpu time      0.9249: real time      0.9307
    FORCOR:  cpu time      0.0082: real time      0.0108
    FORHAR:  cpu time      0.0017: real time      0.0035
    MIXING:  cpu time      0.0008: real time      0.0008
    OFIELD:  cpu time      0.0001: real time      0.0008

  FORCE on cell =-STRESS in cart. coord.  units (eV):
  Direction    XX          YY          ZZ          XY          YZ          ZX
  --------------------------------------------------------------------------------------
  Alpha Z     5.19040     5.19040     5.19040
  Ewald     828.96970   828.96971 -1097.61002    -0.00001     0.00000    -0.00000
  Hartree   806.02250   806.02250  -794.68291    -0.00000    -0.00000    -0.00000
  E(xc)     -29.69310   -29.69310   -30.80606     0.00000     0.00000     0.00000
  Local   -1722.54351 -1722.54352  1787.77751     0.00001     0.00000     0.00000
  n-local    -7.52263    -6.69759    -6.49103    -0.07410     0.00000    -0.00000
  augment    -0.77659    -0.77658    -0.71631    -0.00001    -0.00000    -0.00000
  Kinetic   123.72991   116.15687   137.32810     0.16456     0.00000    -0.00000
  Fock        0.00000     0.00000     0.00000     0.00000     0.00000     0.00000
  -------------------------------------------------------------------------------------
  Total       0.00269     0.00269    -0.01033    -0.00000    -0.00000    -0.00000
  in kB       0.06812     0.06812    -0.26135    -0.00000    -0.00000    -0.00000
  external pressure =       -0.04 kB  Pullay stress =        0.00 kB


 VOLUME and BASIS-vectors are now :
 -----------------------------------------------------------------------------
  energy-cutoff  :      520.00
  volume of cell :       63.31
      direct lattice vectors                 reciprocal lattice vectors
     2.468133242  0.000000000  0.000000000     0.405164512 -0.233921840  0.000000000
     1.234066621  2.137466087  0.000000000     0.000000000  0.467843680  0.000000000
     0.000000000  0.000000000 12.000000000     0.000000000  0.000000000  0.083333333

  length of vectors
     2.468133242  2.468133242 12.000000000     0.467843680  0.467843680  0.083333333


 FORCES acting on ions
    electron-ion (+dipol)            ewald-force                    non-local-force                 convergence-correction
 -----------------------------------------------------------------------------------------------
   -.851E-06 -.498E-06 -.211E-06   0.648E-05 0.385E-05 0.322E-19   -.278E-16 0.000E+00 0.000E+00   -.552E-10 -.320E-10 0.484E-13
   -.606E-05 -.360E-05 0.211E-06   -.648E-05 -.385E-05 -.322E-19   0.139E-16 0.000E+00 0.000E+00   0.589E-10 0.341E-10 0.479E-13
 -----------------------------------------------------------------------------------------------
   -.691E-05 -.409E-05 -.130E-11   -.114E-13 0.255E-14 0.000E+00   -.139E-16 0.000E+00 0.000E+00   0.367E-11 0.217E-11 0.963E-13
 
 
 POSITION                                       TOTAL-FORCE (eV/Angst)
 -----------------------------------------------------------------------------------
      0.00000      0.00000      6.00000        -0.000000     -0.000000      0.000000
      1.23407      0.71249      6.00000         0.000000      0.000000      0.000000
 -----------------------------------------------------------------------------------
    total drift:                               -0.000007     -0.000004     -0.000000


--------------------------------------------------------------------------------------------------------



  FREE ENERGIE OF THE ION-ELECTRON SYSTEM (eV)
  ---------------------------------------------------
  free  energy   TOTEN  =       -18.44711354 eV

  energy  without entropy=      -18.44676528  energy(sigma->0) =      -18.44693941
 


--------------------------------------------------------------------------------------------------------


    POTLOK:  cpu time      0.0106: real time      0.0114


--------------------------------------------------------------------------------------------------------


 writing wavefunctions
     LOOP+:  cpu time    110.8933: real time    111.3903
    4ORBIT:  cpu time      0.0000: real time      0.0000

 total amount of memory used by VASP MPI-rank0    55984. kBytes
=======================================================================

   base      :      30000. kBytes
   nonl-proj :      18875. kBytes
   fftplans  :        519. kBytes
   grid      :       1798. kBytes
   one-center:          6. kBytes
   wavefun   :       4786. kBytes
 
  
  
 General timing and accounting informations for this job:
 ========================================================
  
                  Total CPU time used (sec):      113.479
                            User time (sec):      111.837
                          System time (sec):        1.642
                         Elapsed time (sec):      115.599
  
                   Maximum memory used (kb):      295188.
                   Average memory used (kb):          N/A
  
                          Minor page faults:        66645
                          Major page faults:            8
                 Voluntary context switches:         7732
