<?xml version="1.0" encoding="ISO-8859-1"?>
<modeling>
 <generator>
  <i name="program" type="string">vasp </i>
  <i name="version" type="string">6.3.0  </i>
  <i name="subversion" type="string">20Jan22 (build Jan 26 2022 20:51:09) complex                          parallel </i>
  <i name="platform" type="string">LinuxIFC </i>
  <i name="date" type="string">2023 07 15 </i>
  <i name="time" type="string">20:49:21 </i>
 </generator>
 <incar>
  <i type="int" name="ISTART">     0</i>
  <i type="string" name="PREC">A       (Precision level)</i>
  <i type="logical" name="ADDGRID"> F  </i>
  <i type="int" name="ISPIN">     1</i>
  <i type="int" name="NELM">   200</i>
  <i type="int" name="IBRION">    -1</i>
  <i name="EDIFF">      0.00000100</i>
  <i name="EDIFFG">     -0.00001000</i>
  <i type="int" name="NSW">     0</i>
  <i type="int" name="ISIF">     3</i>
  <i name="ENCUT">    520.00000000</i>
  <i type="logical" name="LREAL"> F  </i>
  <i type="int" name="ISMEAR">     0</i>
  <i name="SIGMA">      0.05000000</i>
  <i type="logical" name="LWAVE"> T  </i>
  <i type="logical" name="LCHARG"> T  </i>
 </incar>
 <primitive_cell>
  <structure name="primitive_cell" >
   <crystal>
    <varray name="basis" >
     <v>       2.46813324       0.00000000       0.00000000 </v>
     <v>       1.23406662       2.13746609       0.00000000 </v>
     <v>       0.00000000       0.00000000      12.00000000 </v>
    </varray>
    <i name="volume">     63.30661323 </i>
    <varray name="rec_basis" >
     <v>       0.40516451      -0.23392184       0.00000000 </v>
     <v>       0.00000000       0.46784368       0.00000000 </v>
     <v>       0.00000000       0.00000000       0.08333333 </v>
    </varray>
   </crystal>
   <varray name="positions" >
    <v>       0.00000000       0.00000000       0.50000000 </v>
    <v>       0.33333334       0.33333334       0.50000000 </v>
   </varray>
  </structure>
  <varray name="primitive_index" >
   <v type="int" >        1 </v>
   <v type="int" >        2 </v>
  </varray>
 </primitive_cell>
 <kpoints>
  <varray name="kpointlist" >
   <v>       0.00000000       0.00000000       0.00000000 </v>
   <v>       0.05555556       0.00000000       0.00000000 </v>
   <v>       0.11111111       0.00000000       0.00000000 </v>
   <v>       0.16666667       0.00000000       0.00000000 </v>
   <v>       0.22222222       0.00000000       0.00000000 </v>
   <v>       0.27777778       0.00000000       0.00000000 </v>
   <v>       0.33333333       0.00000000       0.00000000 </v>
   <v>       0.38888889       0.00000000       0.00000000 </v>
   <v>       0.44444444       0.00000000       0.00000000 </v>
   <v>       0.50000000       0.00000000       0.00000000 </v>
   <v>       0.11111111       0.05555556       0.00000000 </v>
   <v>       0.16666667       0.05555556       0.00000000 </v>
   <v>       0.22222222       0.05555556       0.00000000 </v>
   <v>       0.27777778       0.05555556       0.00000000 </v>
   <v>       0.33333333       0.05555556       0.00000000 </v>
   <v>       0.38888889       0.05555556       0.00000000 </v>
   <v>       0.44444444       0.05555556       0.00000000 </v>
   <v>       0.50000000       0.05555556       0.00000000 </v>
   <v>       0.22222222       0.11111111       0.00000000 </v>
   <v>       0.27777778       0.11111111       0.00000000 </v>
   <v>       0.33333333       0.11111111       0.00000000 </v>
   <v>       0.38888889       0.11111111       0.00000000 </v>
   <v>       0.44444444       0.11111111       0.00000000 </v>
   <v>       0.50000000       0.11111111       0.00000000 </v>
   <v>      -0.44444444       0.11111111       0.00000000 </v>
   <v>       0.33333333       0.16666667       0.00000000 </v>
   <v>       0.38888889       0.16666667       0.00000000 </v>
   <v>       0.44444444       0.16666667       0.00000000 </v>
   <v>       0.50000000       0.16666667       0.00000000 </v>
   <v>      -0.44444444       0.16666667       0.00000000 </v>
   <v>       0.44444444       0.22222222       0.00000000 </v>
   <v>       0.50000000       0.22222222       0.00000000 </v>
   <v>      -0.44444444       0.22222222       0.00000000 </v>
   <v>      -0.38888889       0.22222222       0.00000000 </v>
   <v>      -0.44444444       0.27777778       0.00000000 </v>
   <v>      -0.38888889       0.27777778       0.00000000 </v>
   <v>      -0.33333333       0.33333333       0.00000000 </v>
   <v>       0.00000000       0.00000000       0.00000000 </v>
   <v>       0.01063830       0.01063830       0.00000000 </v>
   <v>       0.02127660       0.02127660       0.00000000 </v>
   <v>       0.03191489       0.03191489       0.00000000 </v>
   <v>       0.04255319       0.04255319       0.00000000 </v>
   <v>       0.05319149       0.05319149       0.00000000 </v>
   <v>       0.06382979       0.06382979       0.00000000 </v>
   <v>       0.07446809       0.07446809       0.00000000 </v>
   <v>       0.08510638       0.08510638       0.00000000 </v>
   <v>       0.09574468       0.09574468       0.00000000 </v>
   <v>       0.10638298       0.10638298       0.00000000 </v>
   <v>       0.11702128       0.11702128       0.00000000 </v>
   <v>       0.12765957       0.12765957       0.00000000 </v>
   <v>       0.13829787       0.13829787       0.00000000 </v>
   <v>       0.14893617       0.14893617       0.00000000 </v>
   <v>       0.15957447       0.15957447       0.00000000 </v>
   <v>       0.17021277       0.17021277       0.00000000 </v>
   <v>       0.18085106       0.18085106       0.00000000 </v>
   <v>       0.19148936       0.19148936       0.00000000 </v>
   <v>       0.20212766       0.20212766       0.00000000 </v>
   <v>       0.21276596       0.21276596       0.00000000 </v>
   <v>       0.22340426       0.22340426       0.00000000 </v>
   <v>       0.23404255       0.23404255       0.00000000 </v>
   <v>       0.24468085       0.24468085       0.00000000 </v>
   <v>       0.25531915       0.25531915       0.00000000 </v>
   <v>       0.26595745       0.26595745       0.00000000 </v>
   <v>       0.27659574       0.27659574       0.00000000 </v>
   <v>       0.28723404       0.28723404       0.00000000 </v>
   <v>       0.29787234       0.29787234       0.00000000 </v>
   <v>       0.30851064       0.30851064       0.00000000 </v>
   <v>       0.31914894       0.31914894       0.00000000 </v>
   <v>       0.32978723       0.32978723       0.00000000 </v>
   <v>       0.34042553       0.34042553       0.00000000 </v>
   <v>       0.35106383       0.35106383       0.00000000 </v>
   <v>       0.36170213       0.36170213       0.00000000 </v>
   <v>       0.37234043       0.37234043       0.00000000 </v>
   <v>       0.38297872       0.38297872       0.00000000 </v>
   <v>       0.39361702       0.39361702       0.00000000 </v>
   <v>       0.40425532       0.40425532       0.00000000 </v>
   <v>       0.41489362       0.41489362       0.00000000 </v>
   <v>       0.42553191       0.42553191       0.00000000 </v>
   <v>       0.43617021       0.43617021       0.00000000 </v>
   <v>       0.44680851       0.44680851       0.00000000 </v>
   <v>       0.45744681       0.45744681       0.00000000 </v>
   <v>       0.46808511       0.46808511       0.00000000 </v>
   <v>       0.47872340       0.47872340       0.00000000 </v>
   <v>       0.48936170       0.48936170       0.00000000 </v>
   <v>       0.50000000       0.50000000       0.00000000 </v>
   <v>       0.50000000       0.50000000       0.00000000 </v>
   <v>       0.49382716       0.50617284       0.00000000 </v>
   <v>       0.48765432       0.51234568       0.00000000 </v>
   <v>       0.48148148       0.51851852       0.00000000 </v>
   <v>       0.47530864       0.52469136       0.00000000 </v>
   <v>       0.46913580       0.53086420       0.00000000 </v>
   <v>       0.46296296       0.53703704       0.00000000 </v>
   <v>       0.45679012       0.54320988       0.00000000 </v>
   <v>       0.45061728       0.54938272       0.00000000 </v>
   <v>       0.44444444       0.55555556       0.00000000 </v>
   <v>       0.43827160       0.56172840       0.00000000 </v>
   <v>       0.43209877       0.56790123       0.00000000 </v>
   <v>       0.42592593       0.57407407       0.00000000 </v>
   <v>       0.41975309       0.58024691       0.00000000 </v>
   <v>       0.41358025       0.58641975       0.00000000 </v>
   <v>       0.40740741       0.59259259       0.00000000 </v>
   <v>       0.40123457       0.59876543       0.00000000 </v>
   <v>       0.39506173       0.60493827       0.00000000 </v>
   <v>       0.38888889       0.61111111       0.00000000 </v>
   <v>       0.38271605       0.61728395       0.00000000 </v>
   <v>       0.37654321       0.62345679       0.00000000 </v>
   <v>       0.37037037       0.62962963       0.00000000 </v>
   <v>       0.36419753       0.63580247       0.00000000 </v>
   <v>       0.35802469       0.64197531       0.00000000 </v>
   <v>       0.35185185       0.64814815       0.00000000 </v>
   <v>       0.34567901       0.65432099       0.00000000 </v>
   <v>       0.33950617       0.66049383       0.00000000 </v>
   <v>       0.33333333       0.66666667       0.00000000 </v>
   <v>       0.33333333       0.66666667       0.00000000 </v>
   <v>       0.32727273       0.65454545       0.00000000 </v>
   <v>       0.32121212       0.64242424       0.00000000 </v>
   <v>       0.31515152       0.63030303       0.00000000 </v>
   <v>       0.30909091       0.61818182       0.00000000 </v>
   <v>       0.30303030       0.60606061       0.00000000 </v>
   <v>       0.29696970       0.59393939       0.00000000 </v>
   <v>       0.29090909       0.58181818       0.00000000 </v>
   <v>       0.28484848       0.56969697       0.00000000 </v>
   <v>       0.27878788       0.55757576       0.00000000 </v>
   <v>       0.27272727       0.54545455       0.00000000 </v>
   <v>       0.26666667       0.53333333       0.00000000 </v>
   <v>       0.26060606       0.52121212       0.00000000 </v>
   <v>       0.25454545       0.50909091       0.00000000 </v>
   <v>       0.24848485       0.49696970       0.00000000 </v>
   <v>       0.24242424       0.48484848       0.00000000 </v>
   <v>       0.23636364       0.47272727       0.00000000 </v>
   <v>       0.23030303       0.46060606       0.00000000 </v>
   <v>       0.22424242       0.44848485       0.00000000 </v>
   <v>       0.21818182       0.43636364       0.00000000 </v>
   <v>       0.21212121       0.42424242       0.00000000 </v>
   <v>       0.20606061       0.41212121       0.00000000 </v>
   <v>       0.20000000       0.40000000       0.00000000 </v>
   <v>       0.19393939       0.38787879       0.00000000 </v>
   <v>       0.18787879       0.37575758       0.00000000 </v>
   <v>       0.18181818       0.36363636       0.00000000 </v>
   <v>       0.17575758       0.35151515       0.00000000 </v>
   <v>       0.16969697       0.33939394       0.00000000 </v>
   <v>       0.16363636       0.32727273       0.00000000 </v>
   <v>       0.15757576       0.31515152       0.00000000 </v>
   <v>       0.15151515       0.30303030       0.00000000 </v>
   <v>       0.14545455       0.29090909       0.00000000 </v>
   <v>       0.13939394       0.27878788       0.00000000 </v>
   <v>       0.13333333       0.26666667       0.00000000 </v>
   <v>       0.12727273       0.25454545       0.00000000 </v>
   <v>       0.12121212       0.24242424       0.00000000 </v>
   <v>       0.11515152       0.23030303       0.00000000 </v>
   <v>       0.10909091       0.21818182       0.00000000 </v>
   <v>       0.10303030       0.20606061       0.00000000 </v>
   <v>       0.09696970       0.19393939       0.00000000 </v>
   <v>       0.09090909       0.18181818       0.00000000 </v>
   <v>       0.08484848       0.16969697       0.00000000 </v>
   <v>       0.07878788       0.15757576       0.00000000 </v>
   <v>       0.07272727       0.14545455       0.00000000 </v>
   <v>       0.06666667       0.13333333       0.00000000 </v>
   <v>       0.06060606       0.12121212       0.00000000 </v>
   <v>       0.05454545       0.10909091       0.00000000 </v>
   <v>       0.04848485       0.09696970       0.00000000 </v>
   <v>       0.04242424       0.08484848       0.00000000 </v>
   <v>       0.03636364       0.07272727       0.00000000 </v>
   <v>       0.03030303       0.06060606       0.00000000 </v>
   <v>       0.02424242       0.04848485       0.00000000 </v>
   <v>       0.01818182       0.03636364       0.00000000 </v>
   <v>       0.01212121       0.02424242       0.00000000 </v>
   <v>       0.00606061       0.01212121       0.00000000 </v>
   <v>       0.00000000       0.00000000       0.00000000 </v>
  </varray>
  <varray name="weights" >
   <v>       0.00308642 </v>
   <v>       0.01851852 </v>
   <v>       0.01851852 </v>
   <v>       0.01851852 </v>
   <v>       0.01851852 </v>
   <v>       0.01851852 </v>
   <v>       0.01851852 </v>
   <v>       0.01851852 </v>
   <v>       0.01851852 </v>
   <v>       0.00925926 </v>
   <v>       0.01851852 </v>
   <v>       0.03703704 </v>
   <v>       0.03703704 </v>
   <v>       0.03703704 </v>
   <v>       0.03703704 </v>
   <v>       0.03703704 </v>
   <v>       0.03703704 </v>
   <v>       0.03703704 </v>
   <v>       0.01851852 </v>
   <v>       0.03703704 </v>
   <v>       0.03703704 </v>
   <v>       0.03703704 </v>
   <v>       0.03703704 </v>
   <v>       0.03703704 </v>
   <v>       0.01851852 </v>
   <v>       0.01851852 </v>
   <v>       0.03703704 </v>
   <v>       0.03703704 </v>
   <v>       0.03703704 </v>
   <v>       0.03703704 </v>
   <v>       0.01851852 </v>
   <v>       0.03703704 </v>
   <v>       0.03703704 </v>
   <v>       0.01851852 </v>
   <v>       0.01851852 </v>
   <v>       0.03703704 </v>
   <v>       0.00617284 </v>
   <v>       0.00000000 </v>
   <v>       0.00000000 </v>
   <v>       0.00000000 </v>
   <v>       0.00000000 </v>
   <v>       0.00000000 </v>
   <v>       0.00000000 </v>
   <v>       0.00000000 </v>
   <v>       0.00000000 </v>
   <v>       0.00000000 </v>
   <v>       0.00000000 </v>
   <v>       0.00000000 </v>
   <v>       0.00000000 </v>
   <v>       0.00000000 </v>
   <v>       0.00000000 </v>
   <v>       0.00000000 </v>
   <v>       0.00000000 </v>
   <v>       0.00000000 </v>
   <v>       0.00000000 </v>
   <v>       0.00000000 </v>
   <v>       0.00000000 </v>
   <v>       0.00000000 </v>
   <v>       0.00000000 </v>
   <v>       0.00000000 </v>
   <v>       0.00000000 </v>
   <v>       0.00000000 </v>
   <v>       0.00000000 </v>
   <v>       0.00000000 </v>
   <v>       0.00000000 </v>
   <v>       0.00000000 </v>
   <v>       0.00000000 </v>
   <v>       0.00000000 </v>
   <v>       0.00000000 </v>
   <v>       0.00000000 </v>
   <v>       0.00000000 </v>
   <v>       0.00000000 </v>
   <v>       0.00000000 </v>
   <v>       0.00000000 </v>
   <v>       0.00000000 </v>
   <v>       0.00000000 </v>
   <v>       0.00000000 </v>
   <v>       0.00000000 </v>
   <v>       0.00000000 </v>
   <v>       0.00000000 </v>
   <v>       0.00000000 </v>
   <v>       0.00000000 </v>
   <v>       0.00000000 </v>
   <v>       0.00000000 </v>
   <v>       0.00000000 </v>
   <v>       0.00000000 </v>
   <v>       0.00000000 </v>
   <v>       0.00000000 </v>
   <v>       0.00000000 </v>
   <v>       0.00000000 </v>
   <v>       0.00000000 </v>
   <v>       0.00000000 </v>
   <v>       0.00000000 </v>
   <v>       0.00000000 </v>
   <v>       0.00000000 </v>
   <v>       0.00000000 </v>
   <v>       0.00000000 </v>
   <v>       0.00000000 </v>
   <v>       0.00000000 </v>
   <v>       0.00000000 </v>
   <v>       0.00000000 </v>
   <v>       0.00000000 </v>
   <v>       0.00000000 </v>
   <v>       0.00000000 </v>
   <v>       0.00000000 </v>
   <v>       0.00000000 </v>
   <v>       0.00000000 </v>
   <v>       0.00000000 </v>
   <v>       0.00000000 </v>
   <v>       0.00000000 </v>
   <v>       0.00000000 </v>
   <v>       0.00000000 </v>
   <v>       0.00000000 </v>
   <v>       0.00000000 </v>
   <v>       0.00000000 </v>
   <v>       0.00000000 </v>
   <v>       0.00000000 </v>
   <v>       0.00000000 </v>
   <v>       0.00000000 </v>
   <v>       0.00000000 </v>
   <v>       0.00000000 </v>
   <v>       0.00000000 </v>
   <v>       0.00000000 </v>
   <v>       0.00000000 </v>
   <v>       0.00000000 </v>
   <v>       0.00000000 </v>
   <v>       0.00000000 </v>
   <v>       0.00000000 </v>
   <v>       0.00000000 </v>
   <v>       0.00000000 </v>
   <v>       0.00000000 </v>
   <v>       0.00000000 </v>
   <v>       0.00000000 </v>
   <v>       0.00000000 </v>
   <v>       0.00000000 </v>
   <v>       0.00000000 </v>
   <v>       0.00000000 </v>
   <v>       0.00000000 </v>
   <v>       0.00000000 </v>
   <v>       0.00000000 </v>
   <v>       0.00000000 </v>
   <v>       0.00000000 </v>
   <v>       0.00000000 </v>
   <v>       0.00000000 </v>
   <v>       0.00000000 </v>
   <v>       0.00000000 </v>
   <v>       0.00000000 </v>
   <v>       0.00000000 </v>
   <v>       0.00000000 </v>
   <v>       0.00000000 </v>
   <v>       0.00000000 </v>
   <v>       0.00000000 </v>
   <v>       0.00000000 </v>
   <v>       0.00000000 </v>
   <v>       0.00000000 </v>
   <v>       0.00000000 </v>
   <v>       0.00000000 </v>
   <v>       0.00000000 </v>
   <v>       0.00000000 </v>
   <v>       0.00000000 </v>
   <v>       0.00000000 </v>
   <v>       0.00000000 </v>
   <v>       0.00000000 </v>
   <v>       0.00000000 </v>
   <v>       0.00000000 </v>
   <v>       0.00000000 </v>
   <v>       0.00000000 </v>
   <v>       0.00000000 </v>
   <v>       0.00000000 </v>
  </varray>
 </kpoints>
 <parameters>
  <separator name="general" >
   <i type="string" name="SYSTEM">unknown system</i>
   <i type="logical" name="LCOMPAT"> F  </i>
  </separator>
  <separator name="electronic" >
   <i type="string" name="PREC">a</i>
   <i name="ENMAX">    520.00000000</i>
   <i name="ENAUG">    644.87300000</i>
   <i name="EDIFF">      0.00000100</i>
   <i type="int" name="IALGO">    38</i>
   <i type="int" name="IWAVPR">    10</i>
   <i type="int" name="NBANDS">    30</i>
   <i type="int" name="NBANDSLOW">    -1</i>
   <i type="int" name="NBANDSHIGH">    -1</i>
   <i name="NELECT">      8.00000000</i>
   <i type="int" name="TURBO">     0</i>
   <i type="int" name="IRESTART">     0</i>
   <i type="int" name="NREBOOT">     0</i>
   <i type="int" name="NMIN">     0</i>
   <i name="EREF">      0.00000000</i>
   <separator name="electronic smearing" >
    <i type="int" name="ISMEAR">     0</i>
    <i name="SIGMA">      0.05000000</i>
    <i name="KSPACING">      0.50000000</i>
    <i type="logical" name="KGAMMA"> T  </i>
    <i type="logical" name="KBLOWUP"> T  </i>
   </separator>
   <separator name="electronic projectors" >
    <i type="logical" name="LREAL"> F  </i>
    <v name="ROPT">      0.00000000</v>
    <i type="int" name="LMAXPAW">  -100</i>
    <i type="int" name="LMAXMIX">     2</i>
    <i type="logical" name="NLSPLINE"> F  </i>
   </separator>
   <separator name="electronic startup" >
    <i type="int" name="ISTART">     0</i>
    <i type="int" name="ICHARG">     2</i>
    <i type="int" name="INIWAV">     1</i>
   </separator>
   <separator name="electronic spin" >
    <i type="int" name="ISPIN">     1</i>
    <i type="logical" name="LNONCOLLINEAR"> F  </i>
    <v name="MAGMOM">      1.00000000      1.00000000</v>
    <i name="NUPDOWN">     -1.00000000</i>
    <i type="logical" name="LSORBIT"> F  </i>
    <v name="SAXIS">      0.00000000      0.00000000      1.00000000</v>
    <i type="logical" name="LSPIRAL"> F  </i>
    <v name="QSPIRAL">      0.00000000      0.00000000      0.00000000</v>
    <i type="logical" name="LZEROZ"> F  </i>
   </separator>
   <separator name="electronic exchange-correlation" >
    <i type="logical" name="LASPH"> F  </i>
    <i type="logical" name="LMETAGGA"> F  </i>
   </separator>
   <separator name="electronic convergence" >
    <i type="int" name="NELM">   200</i>
    <i type="int" name="NELMDL">    -5</i>
    <i type="int" name="NELMIN">     2</i>
    <i name="ENINI">    520.00000000</i>
    <separator name="electronic convergence detail" >
     <i type="logical" name="LDIAG"> T  </i>
     <i type="logical" name="LSUBROT"> F  </i>
     <i name="WEIMIN">      0.00000000</i>
     <i name="EBREAK">      0.00000001</i>
     <i name="DEPER">      0.30000000</i>
     <i type="int" name="NRMM">     4</i>
     <i name="TIME">      0.40000000</i>
    </separator>
   </separator>
   <separator name="electronic mixer" >
    <i name="AMIX">      0.40000000</i>
    <i name="BMIX">      1.00000000</i>
    <i name="AMIN">      0.10000000</i>
    <i name="AMIX_MAG">      1.60000000</i>
    <i name="BMIX_MAG">      1.00000000</i>
    <separator name="electronic mixer details" >
     <i type="int" name="IMIX">     4</i>
     <i type="logical" name="MIXFIRST"> F  </i>
     <i type="int" name="MAXMIX">   -45</i>
     <i name="WC">    100.00000000</i>
     <i type="int" name="INIMIX">     1</i>
     <i type="int" name="MIXPRE">     1</i>
     <i type="int" name="MREMOVE">     5</i>
    </separator>
   </separator>
   <separator name="electronic dipolcorrection" >
    <i type="logical" name="LDIPOL"> F  </i>
    <i type="logical" name="LMONO"> F  </i>
    <i type="int" name="IDIPOL">     0</i>
    <i name="EPSILON">      1.00000000</i>
    <v name="DIPOL">   -100.00000000   -100.00000000   -100.00000000</v>
    <i name="EFIELD">      0.00000000</i>
   </separator>
  </separator>
  <separator name="grids" >
   <i type="int" name="NGX">    18</i>
   <i type="int" name="NGY">    18</i>
   <i type="int" name="NGZ">    90</i>
   <i type="int" name="NGXF">    36</i>
   <i type="int" name="NGYF">    36</i>
   <i type="int" name="NGZF">   180</i>
   <i type="logical" name="ADDGRID"> F  </i>
  </separator>
  <separator name="ionic" >
   <i type="int" name="NSW">     0</i>
   <i type="int" name="IBRION">    -1</i>
   <i type="int" name="MDALGO">     0</i>
   <i type="int" name="ISIF">     3</i>
   <i name="PSTRESS">      0.00000000</i>
   <i name="EDIFFG">     -0.00001000</i>
   <i type="int" name="NFREE">     0</i>
   <i name="POTIM">      0.50000000</i>
   <i name="SMASS">     -3.00000000</i>
   <i name="SCALEE">      1.00000000</i>
  </separator>
  <separator name="ionic md" >
   <i name="TEBEG">      0.00010000</i>
   <i name="TEEND">      0.00010000</i>
   <i type="int" name="NBLOCK">     1</i>
   <i type="int" name="KBLOCK">     1</i>
   <i type="int" name="NPACO">   256</i>
   <i name="APACO">     10.00000000</i>
  </separator>
  <separator name="symmetry" >
   <i type="int" name="ISYM">     2</i>
   <i name="SYMPREC">      0.00001000</i>
  </separator>
  <separator name="dos" >
   <i type="int" name="LORBIT">     0</i>
   <v name="RWIGS">     -1.00000000</v>
   <i type="int" name="NEDOS">   301</i>
   <i name="EMIN">     10.00000000</i>
   <i name="EMAX">    -10.00000000</i>
   <i name="EFERMI">      0.00000000</i>
  </separator>
  <separator name="writing" >
   <i type="int" name="NWRITE">     2</i>
   <i type="logical" name="LWAVE"> T  </i>
   <i type="logical" name="LDOWNSAMPLE"> F  </i>
   <i type="logical" name="LCHARG"> T  </i>
   <i type="logical" name="LPARD"> F  </i>
   <i type="logical" name="LVTOT"> F  </i>
   <i type="logical" name="LVHAR"> F  </i>
   <i type="logical" name="LELF"> F  </i>
   <i type="logical" name="LOPTICS"> F  </i>
   <v name="STM">      0.00000000      0.00000000      0.00000000      0.00000000      0.00000000      0.00000000      0.00000000</v>
  </separator>
  <separator name="performance" >
   <i type="int" name="NPAR">    30</i>
   <i type="int" name="NSIM">     4</i>
   <i type="int" name="NBLK">    -1</i>
   <i type="logical" name="LPLANE"> T  </i>
   <i type="logical" name="LSCALAPACK"> T  </i>
   <i type="logical" name="LSCAAWARE"> F  </i>
   <i type="logical" name="LSCALU"> F  </i>
   <i type="logical" name="LASYNC"> F  </i>
   <i type="logical" name="LORBITALREAL"> F  </i>
  </separator>
  <separator name="miscellaneous" >
   <i type="int" name="IDIOT">     3</i>
   <i type="int" name="PHON_NSTRUCT">    -1</i>
   <i type="logical" name="LMUSIC"> F  </i>
   <v name="POMASS">     12.01100000</v>
   <v name="DARWINR">      0.00000000</v>
   <v name="DARWINV">      1.00000000</v>
   <i type="logical" name="LCORR"> T  </i>
  </separator>
  <i type="logical" name="GGA_COMPAT"> T  </i>
  <i type="logical" name="LBERRY"> F  </i>
  <i type="int" name="ICORELEVEL">     0</i>
  <i type="logical" name="LDAU"> F  </i>
  <i type="int" name="I_CONSTRAINED_M">     0</i>
  <separator name="electronic exchange-correlation" >
   <i type="string" name="GGA">--</i>
   <i type="int" name="VOSKOWN">     0</i>
   <i type="logical" name="LHFCALC"> F  </i>
   <i type="string" name="PRECFOCK"></i>
   <i type="logical" name="LSYMGRAD"> F  </i>
   <i type="logical" name="LHFONE"> F  </i>
   <i type="logical" name="LRHFCALC"> F  </i>
   <i type="logical" name="LTHOMAS"> F  </i>
   <i type="logical" name="LMODELHF"> F  </i>
   <i type="logical" name="LFOCKACE"> F  </i>
   <i name="ENCUT4O">     -1.00000000</i>
   <i type="int" name="EXXOEP">     0</i>
   <i type="int" name="FOURORBIT">     0</i>
   <i name="AEXX">      0.00000000</i>
   <i name="HFALPHA">      0.00000000</i>
   <i name="MCALPHA">      0.00000000</i>
   <i name="ALDAX">      1.00000000</i>
   <i name="AGGAX">      1.00000000</i>
   <i name="ALDAC">      1.00000000</i>
   <i name="AGGAC">      1.00000000</i>
   <i type="int" name="NKREDX">     1</i>
   <i type="int" name="NKREDY">     1</i>
   <i type="int" name="NKREDZ">     1</i>
   <i type="logical" name="SHIFTRED"> F  </i>
   <i type="logical" name="ODDONLY"> F  </i>
   <i type="logical" name="EVENONLY"> F  </i>
   <i type="int" name="LMAXFOCK">     0</i>
   <i type="int" name="NMAXFOCKAE">     0</i>
   <i type="logical" name="LFOCKAEDFT"> F  </i>
   <i name="HFSCREEN">      0.00000000</i>
   <i name="HFSCREENC">      0.00000000</i>
   <i type="int" name="NBANDSGWLOW">     0</i>
  </separator>
  <separator name="vdW DFT" >
   <i type="logical" name="LUSE_VDW"> F  </i>
   <i name="Zab_VDW">     -0.84910000</i>
   <i name="PARAM1">      0.12340000</i>
   <i name="PARAM2">      1.00000000</i>
   <i name="PARAM3">      0.00000000</i>
  </separator>
  <separator name="model GW" >
   <i type="int" name="MODEL_GW">     0</i>
   <i name="MODEL_EPS0">     18.99198397</i>
   <i name="MODEL_ALPHA">      1.00000000</i>
  </separator>
  <separator name="linear response parameters" >
   <i type="logical" name="LEPSILON"> F  </i>
   <i type="logical" name="LRPA"> F  </i>
   <i type="logical" name="LNABLA"> F  </i>
   <i type="logical" name="LVEL"> F  </i>
   <i name="CSHIFT">      0.10000000</i>
   <i name="OMEGAMAX">     -1.00000000</i>
   <i name="DEG_THRESHOLD">      0.00200000</i>
   <i name="RTIME">     -0.10000000</i>
   <i name="WPLASMAI">      0.00000000</i>
   <v name="DFIELD">      0.00000000      0.00000000      0.00000000</v>
   <v name="WPLASMA">      0.00000000      0.00000000      0.00000000      0.00000000      0.00000000      0.00000000      0.00000000      0.00000000      0.00000000</v>
  </separator>
  <separator name="orbital magnetization" >
   <i type="logical" name="NUCIND"> F  </i>
   <v name="MAGPOS">      0.00000000      0.00000000      0.00000000</v>
   <i type="logical" name="LNICSALL"> T  </i>
   <i type="logical" name="ORBITALMAG"> F  </i>
   <i type="logical" name="LMAGBLOCH"> F  </i>
   <i type="logical" name="LCHIMAG"> F  </i>
   <i type="logical" name="LGAUGE"> T  </i>
   <i type="int" name="MAGATOM">     0</i>
   <v name="MAGDIPOL">      0.00000000      0.00000000      0.00000000</v>
   <v name="AVECCONST">      0.00000000      0.00000000      0.00000000</v>
  </separator>
  <separator name="response functions" >
   <i type="logical" name="LFINITE_TEMPERATURE"> F  </i>
   <i type="logical" name="LADDER"> F  </i>
   <i type="logical" name="LRPAFORCE"> F  </i>
   <i type="logical" name="LFXC"> F  </i>
   <i type="logical" name="LHARTREE"> T  </i>
   <i type="int" name="IBSE">     0</i>
   <v type="int" name="KPOINT">    -1     0     0     0</v>
   <i type="logical" name="LTCTC"> F  </i>
   <i type="logical" name="LTCTE"> F  </i>
   <i type="logical" name="LTETE"> F  </i>
   <i type="logical" name="LTRIPLET"> F  </i>
   <i type="logical" name="LFXCEPS"> F  </i>
   <i type="logical" name="LFXHEG"> F  </i>
   <i type="int" name="NATURALO">     2</i>
   <i type="logical" name="LHOLEGF"> F  </i>
   <i type="logical" name="L2ORDER"> F  </i>
   <i type="logical" name="LDMP1"> F  </i>
   <i type="logical" name="LMP2LT"> F  </i>
   <i type="logical" name="LSMP2LT"> F  </i>
   <i type="logical" name="LGWLF"> F  </i>
   <i name="ENCUTGW">     -2.00000000</i>
   <i name="ENCUTGWSOFT">     -2.00000000</i>
   <i name="ENCUTLF">     -1.00000000</i>
   <i type="logical" name="LESF_SPLINES"> F  </i>
   <i type="int" name="LMAXMP2">    -1</i>
   <i name="SCISSOR">      0.00000000</i>
   <i type="int" name="NOMEGA">     0</i>
   <i type="int" name="NOMEGAR">     0</i>
   <i type="int" name="NBANDSGW">    -1</i>
   <i type="int" name="NBANDSO">    -1</i>
   <i type="int" name="NBANDSV">    -1</i>
   <i type="int" name="NELMGW">     1</i>
   <i type="int" name="NELMHF">     1</i>
   <i type="int" name="DIM">     3</i>
   <i type="int" name="IESPILON">     4</i>
   <i type="int" name="ANTIRES">     0</i>
   <i name="OMEGAMAX">    -30.00000000</i>
   <i name="OMEGAMIN">    -30.00000000</i>
   <i name="OMEGATL">   -200.00000000</i>
   <i type="int" name="OMEGAGRID">     0</i>
   <i name="CSHIFT">     -0.10000000</i>
   <i type="logical" name="LSELFENERGY"> F  </i>
   <i type="logical" name="LSPECTRAL"> F  </i>
   <i type="logical" name="LSPECTRALGW"> F  </i>
   <i type="logical" name="LSINGLES"> F  </i>
   <i type="logical" name="LFERMIGW"> F  </i>
   <i type="logical" name="ODDONLYGW"> F  </i>
   <i type="logical" name="EVENONLYGW"> F  </i>
   <i type="int" name="NKREDLFX">     1</i>
   <i type="int" name="NKREDLFY">     1</i>
   <i type="int" name="NKREDLFZ">     1</i>
   <i type="int" name="MAXMEM">  2800</i>
   <i type="int" name="TELESCOPE">     0</i>
   <i type="int" name="NTAUPAR">    -1</i>
   <i type="int" name="NOMEGAPAR">    -1</i>
   <i name="DAMP_NEWTON">      0.80000001</i>
   <i name="LAMBDA">      1.00000000</i>
  </separator>
  <separator name="External order field" >
   <i name="OFIELD_KAPPA">      0.00000000</i>
   <v name="OFIELD_K">      0.00000000      0.00000000      0.00000000</v>
   <i name="OFIELD_Q6_NEAR">      0.00000000</i>
   <i name="OFIELD_Q6_FAR">      0.00000000</i>
   <i name="OFIELD_A">      0.00000000</i>
  </separator>
  <separator name="optional k-points parameters" >
   <i type="int" name="KPOINTS_OPT_MODE">     1</i>
   <i type="logical" name="LKPOINTS_OPT"> F  </i>
  </separator>
 </parameters>
 <atominfo>
  <atoms>       2 </atoms>
  <types>       1 </types>
  <array name="atoms" >
   <dimension dim="1">ion</dimension>
   <field type="string">element</field>
   <field type="int">atomtype</field>
   <set>
    <rc><c>C </c><c>   1</c></rc>
    <rc><c>C </c><c>   1</c></rc>
   </set>
  </array>
  <array name="atomtypes" >
   <dimension dim="1">type</dimension>
   <field type="int">atomspertype</field>
   <field type="string">element</field>
   <field>mass</field>
   <field>valence</field>
   <field type="string">pseudopotential</field>
   <set>
    <rc><c>   2</c><c>C </c><c>     12.01100000</c><c>      4.00000000</c><c>  PAW_PBE C 08Apr2002                   </c></rc>
   </set>
  </array>
 </atominfo>
 <structure name="initialpos" >
  <crystal>
   <varray name="basis" >
    <v>       2.46813324       0.00000000       0.00000000 </v>
    <v>       1.23406662       2.13746609       0.00000000 </v>
    <v>       0.00000000       0.00000000      12.00000000 </v>
   </varray>
   <i name="volume">     63.30661323 </i>
   <varray name="rec_basis" >
    <v>       0.40516451      -0.23392184       0.00000000 </v>
    <v>       0.00000000       0.46784368       0.00000000 </v>
    <v>       0.00000000       0.00000000       0.08333333 </v>
   </varray>
  </crystal>
  <varray name="positions" >
   <v>       0.00000000       0.00000000       0.50000000 </v>
   <v>       0.33333334       0.33333334       0.50000000 </v>
  </varray>
 </structure>
 <calculation>
  <scstep>
   <time name="dav">    3.54    3.55</time>
   <time name="total">    3.56    3.60</time>
   <energy>
    <i name="alphaZ">      5.19040345 </i>
    <i name="ewald">    560.32934460 </i>
    <i name="hartreedc">   -785.47972126 </i>
    <i name="XCdc">     26.34816653 </i>
    <i name="pawpsdc">    217.04409276 </i>
    <i name="pawaedc">   -218.18290438 </i>
    <i name="eentropy">     -0.00000000 </i>
    <i name="bandstr">   -102.35603775 </i>
    <i name="atom">    294.29778662 </i>
    <i name="e_fr_energy">     -2.80886943 </i>
    <i name="e_wo_entrp">     -2.80886943 </i>
    <i name="e_0_energy">     -2.80886943 </i>
   </energy>
  </scstep>
  <scstep>
   <time name="dav">    6.96    6.97</time>
   <time name="total">    6.97    6.98</time>
   <energy>
    <i name="e_fr_energy">    -19.66397054 </i>
    <i name="e_wo_entrp">    -19.66362831 </i>
    <i name="e_0_energy">    -19.66379942 </i>
   </energy>
  </scstep>
  <scstep>
   <time name="dav">    4.12    4.13</time>
   <time name="total">    4.13    4.13</time>
   <energy>
    <i name="e_fr_energy">    -19.71222786 </i>
    <i name="e_wo_entrp">    -19.71187960 </i>
    <i name="e_0_energy">    -19.71205373 </i>
   </energy>
  </scstep>
  <scstep>
   <time name="dav">   10.60   10.60</time>
   <time name="total">   10.60   10.61</time>
   <energy>
    <i name="e_fr_energy">    -19.71236503 </i>
    <i name="e_wo_entrp">    -19.71201677 </i>
    <i name="e_0_energy">    -19.71219090 </i>
   </energy>
  </scstep>
  <scstep>
   <time name="dav">    4.12    4.12</time>
   <time name="total">    4.16    4.18</time>
   <energy>
    <i name="e_fr_energy">    -19.71236520 </i>
    <i name="e_wo_entrp">    -19.71201694 </i>
    <i name="e_0_energy">    -19.71219107 </i>
   </energy>
  </scstep>
  <scstep>
   <time name="dav">    6.04    6.06</time>
   <time name="total">    6.09    6.11</time>
   <energy>
    <i name="e_fr_energy">    -18.80805470 </i>
    <i name="e_wo_entrp">    -18.80770643 </i>
    <i name="e_0_energy">    -18.80788056 </i>
   </energy>
  </scstep>
  <scstep>
   <time name="dav">    6.20    6.23</time>
   <time name="total">    6.25    6.27</time>
   <energy>
    <i name="e_fr_energy">    -18.45895306 </i>
    <i name="e_wo_entrp">    -18.45860480 </i>
    <i name="e_0_energy">    -18.45877893 </i>
   </energy>
  </scstep>
  <scstep>
   <time name="dav">    9.23    9.38</time>
   <time name="total">    9.28    9.43</time>
   <energy>
    <i name="e_fr_energy">    -18.45055562 </i>
    <i name="e_wo_entrp">    -18.45020736 </i>
    <i name="e_0_energy">    -18.45038149 </i>
   </energy>
  </scstep>
  <scstep>
   <time name="dav">    7.55    7.56</time>
   <time name="total">    7.60    7.60</time>
   <energy>
    <i name="e_fr_energy">    -18.44772166 </i>
    <i name="e_wo_entrp">    -18.44737340 </i>
    <i name="e_0_energy">    -18.44754753 </i>
   </energy>
  </scstep>
  <scstep>
   <time name="dav">    6.38    6.41</time>
   <time name="total">    6.45    6.47</time>
   <energy>
    <i name="e_fr_energy">    -18.44457790 </i>
    <i name="e_wo_entrp">    -18.44422964 </i>
    <i name="e_0_energy">    -18.44440377 </i>
   </energy>
  </scstep>
  <scstep>
   <time name="dav">    6.58    6.59</time>
   <time name="total">    6.63    6.64</time>
   <energy>
    <i name="e_fr_energy">    -18.44534250 </i>
    <i name="e_wo_entrp">    -18.44499424 </i>
    <i name="e_0_energy">    -18.44516837 </i>
   </energy>
  </scstep>
  <scstep>
   <time name="dav">    6.94    6.95</time>
   <time name="total">    6.99    6.99</time>
   <energy>
    <i name="e_fr_energy">    -18.44616958 </i>
    <i name="e_wo_entrp">    -18.44582131 </i>
    <i name="e_0_energy">    -18.44599544 </i>
   </energy>
  </scstep>
  <scstep>
   <time name="dav">    6.12    6.22</time>
   <time name="total">    6.16    6.26</time>
   <energy>
    <i name="e_fr_energy">    -18.44704890 </i>
    <i name="e_wo_entrp">    -18.44670064 </i>
    <i name="e_0_energy">    -18.44687477 </i>
   </energy>
  </scstep>
  <scstep>
   <time name="dav">    6.67    6.67</time>
   <time name="total">    6.71    6.72</time>
   <energy>
    <i name="e_fr_energy">    -18.44708754 </i>
    <i name="e_wo_entrp">    -18.44673928 </i>
    <i name="e_0_energy">    -18.44691341 </i>
   </energy>
  </scstep>
  <scstep>
   <time name="dav">    5.96    5.97</time>
   <time name="total">    6.00    6.01</time>
   <energy>
    <i name="e_fr_energy">    -18.44711124 </i>
    <i name="e_wo_entrp">    -18.44676297 </i>
    <i name="e_0_energy">    -18.44693711 </i>
   </energy>
  </scstep>
  <scstep>
   <time name="dav">    5.11    5.12</time>
   <time name="total">    5.15    5.16</time>
   <energy>
    <i name="e_fr_energy">    -18.44711351 </i>
    <i name="e_wo_entrp">    -18.44676524 </i>
    <i name="e_0_energy">    -18.44693937 </i>
   </energy>
  </scstep>
  <scstep>
   <time name="dav">    5.83    5.83</time>
   <time name="total">    5.84    5.84</time>
   <energy>
    <i name="alphaZ">      5.19040345 </i>
    <i name="ewald">    560.32934460 </i>
    <i name="hartreedc">   -817.36207994 </i>
    <i name="XCdc">     27.52792238 </i>
    <i name="pawpsdc">    831.55512928 </i>
    <i name="pawaedc">   -832.92187409 </i>
    <i name="eentropy">     -0.00034827 </i>
    <i name="bandstr">    -87.06339758 </i>
    <i name="atom">    294.29778662 </i>
    <i name="e_fr_energy">    -18.44711354 </i>
    <i name="e_wo_entrp">    -18.44676528 </i>
    <i name="e_0_energy">    -18.44693941 </i>
   </energy>
  </scstep>
  <structure>
   <crystal>
    <varray name="basis" >
     <v>       2.46813324       0.00000000       0.00000000 </v>
     <v>       1.23406662       2.13746609       0.00000000 </v>
     <v>       0.00000000       0.00000000      12.00000000 </v>
    </varray>
    <i name="volume">     63.30661323 </i>
    <varray name="rec_basis" >
     <v>       0.40516451      -0.23392184       0.00000000 </v>
     <v>       0.00000000       0.46784368       0.00000000 </v>
     <v>       0.00000000       0.00000000       0.08333333 </v>
    </varray>
   </crystal>
   <varray name="positions" >
    <v>       0.00000000       0.00000000       0.50000000 </v>
    <v>       0.33333334       0.33333334       0.50000000 </v>
   </varray>
  </structure>
  <varray name="forces" >
   <v>      -0.00000000      -0.00000000       0.00000000 </v>
   <v>       0.00000000       0.00000000       0.00000000 </v>
  </varray>
  <varray name="stress" >
   <v>       0.06812391      -0.00000000      -0.00000000 </v>
   <v>      -0.00000000       0.06812391       0.00000000 </v>
   <v>       0.00000000      -0.00000000      -0.26135139 </v>
  </varray>
  <energy>
   <i name="e_fr_energy">    -18.44711354 </i>
   <i name="e_wo_entrp">    -18.44676528 </i>
   <i name="e_0_energy">    -18.44693941 </i>
  </energy>
  <time name="totalsc">  110.89  111.39</time>
  <eigenvalues>
   <array>
    <dimension dim="1">band</dimension>
    <dimension dim="2">kpoint</dimension>
    <dimension dim="3">spin</dimension>
    <field>eigene</field>
    <field>occ</field>
    <set>
     <set comment="spin 1">
      <set comment="kpoint 1">
       <r>  -21.2496    1.0000 </r>
       <r>   -9.3553    1.0000 </r>
       <r>   -4.7873    1.0000 </r>
       <r>   -4.7873    1.0000 </r>
       <r>    1.4635    0.0000 </r>
       <r>    2.6049    0.0000 </r>
       <r>    3.4626    0.0000 </r>
       <r>    6.5464    0.0000 </r>
       <r>    6.5464    0.0000 </r>
       <r>    6.5863    0.0000 </r>
       <r>    7.8294    0.0000 </r>
       <r>    9.6272    0.0000 </r>
       <r>   10.6842    0.0000 </r>
       <r>   12.8188    0.0000 </r>
       <r>   14.6510    0.0000 </r>
       <r>   20.7032    0.0000 </r>
       <r>   20.9997    0.0000 </r>
       <r>   23.7373    0.0000 </r>
       <r>   26.3936    0.0000 </r>
       <r>   26.3936    0.0000 </r>
       <r>   29.0528    0.0000 </r>
       <r>   29.8060    0.0000 </r>
       <r>   29.8060    0.0000 </r>
       <r>   33.4006    0.0000 </r>
       <r>   33.4006    0.0000 </r>
       <r>   33.6779    0.0000 </r>
       <r>   33.8938    0.0000 </r>
       <r>   33.8938    0.0000 </r>
       <r>   34.3650    0.0000 </r>
       <r>   34.7900    0.0000 </r>
      </set>
      <set comment="kpoint 2">
       <r>  -21.1768    1.0000 </r>
       <r>   -9.2684    1.0000 </r>
       <r>   -5.0849    1.0000 </r>
       <r>   -4.9432    1.0000 </r>
       <r>    1.5625    0.0000 </r>
       <r>    2.7040    0.0000 </r>
       <r>    3.5621    0.0000 </r>
       <r>    6.5821    0.0000 </r>
       <r>    6.6830    0.0000 </r>
       <r>    6.8609    0.0000 </r>
       <r>    7.9314    0.0000 </r>
       <r>    9.3743    0.0000 </r>
       <r>   10.8160    0.0000 </r>
       <r>   12.9070    0.0000 </r>
       <r>   14.7485    0.0000 </r>
       <r>   20.9388    0.0000 </r>
       <r>   21.0307    0.0000 </r>
       <r>   23.8307    0.0000 </r>
       <r>   25.6515    0.0000 </r>
       <r>   25.7165    0.0000 </r>
       <r>   28.1779    0.0000 </r>
       <r>   30.5655    0.0000 </r>
       <r>   30.6551    0.0000 </r>
       <r>   31.2274    0.0000 </r>
       <r>   31.9486    0.0000 </r>
       <r>   32.4082    0.0000 </r>
       <r>   32.5351    0.0000 </r>
       <r>   32.8523    0.0000 </r>
       <r>   33.9052    0.0000 </r>
       <r>   34.3049    0.0000 </r>
      </set>
      <set comment="kpoint 3">
       <r>  -20.9586    1.0000 </r>
       <r>   -9.0086    1.0000 </r>
       <r>   -5.9022    1.0000 </r>
       <r>   -5.3575    1.0000 </r>
       <r>    1.8596    0.0000 </r>
       <r>    3.0011    0.0000 </r>
       <r>    3.8607    0.0000 </r>
       <r>    6.6166    0.0000 </r>
       <r>    6.9719    0.0000 </r>
       <r>    7.7469    0.0000 </r>
       <r>    8.2323    0.0000 </r>
       <r>    8.6555    0.0000 </r>
       <r>   11.2414    0.0000 </r>
       <r>   13.1676    0.0000 </r>
       <r>   15.0386    0.0000 </r>
       <r>   21.0073    0.0000 </r>
       <r>   21.5609    0.0000 </r>
       <r>   24.0060    0.0000 </r>
       <r>   24.1168    0.0000 </r>
       <r>   24.5036    0.0000 </r>
       <r>   27.4356    0.0000 </r>
       <r>   28.2470    0.0000 </r>
       <r>   29.2465    0.0000 </r>
       <r>   29.3969    0.0000 </r>
       <r>   30.4603    0.0000 </r>
       <r>   31.3294    0.0000 </r>
       <r>   31.8140    0.0000 </r>
       <r>   32.1250    0.0000 </r>
       <r>   32.8000    0.0000 </r>
       <r>   32.9618    0.0000 </r>
      </set>
      <set comment="kpoint 4">
       <r>  -20.5961    1.0000 </r>
       <r>   -8.5792    1.0000 </r>
       <r>   -7.0755    1.0000 </r>
       <r>   -5.9149    1.0000 </r>
       <r>    2.3546    0.0000 </r>
       <r>    3.4946    0.0000 </r>
       <r>    4.3581    0.0000 </r>
       <r>    6.5499    0.0000 </r>
       <r>    7.4132    0.0000 </r>
       <r>    7.6062    0.0000 </r>
       <r>    8.7234    0.0000 </r>
       <r>    9.0768    0.0000 </r>
       <r>   11.9657    0.0000 </r>
       <r>   13.5882    0.0000 </r>
       <r>   15.5162    0.0000 </r>
       <r>   20.4289    0.0000 </r>
       <r>   22.2097    0.0000 </r>
       <r>   22.9556    0.0000 </r>
       <r>   23.3122    0.0000 </r>
       <r>   24.4982    0.0000 </r>
       <r>   24.7481    0.0000 </r>
       <r>   26.2418    0.0000 </r>
       <r>   26.4179    0.0000 </r>
       <r>   28.5079    0.0000 </r>
       <r>   29.1577    0.0000 </r>
       <r>   30.0004    0.0000 </r>
       <r>   30.6423    0.0000 </r>
       <r>   30.7143    0.0000 </r>
       <r>   31.4292    0.0000 </r>
       <r>   31.4862    0.0000 </r>
      </set>
      <set comment="kpoint 5">
       <r>  -20.0911    1.0000 </r>
       <r>   -8.4484    1.0000 </r>
       <r>   -7.9865    1.0000 </r>
       <r>   -6.5075    1.0000 </r>
       <r>    3.0468    0.0000 </r>
       <r>    4.1784    0.0000 </r>
       <r>    5.0524    0.0000 </r>
       <r>    6.2143    0.0000 </r>
       <r>    6.3812    0.0000 </r>
       <r>    8.1327    0.0000 </r>
       <r>    9.4030    0.0000 </r>
       <r>   10.7176    0.0000 </r>
       <r>   12.8782    0.0000 </r>
       <r>   14.1390    0.0000 </r>
       <r>   16.1743    0.0000 </r>
       <r>   19.1576    0.0000 </r>
       <r>   21.1818    0.0000 </r>
       <r>   22.2631    0.0000 </r>
       <r>   22.4147    0.0000 </r>
       <r>   22.9532    0.0000 </r>
       <r>   24.0961    0.0000 </r>
       <r>   24.2366    0.0000 </r>
       <r>   25.4488    0.0000 </r>
       <r>   27.2027    0.0000 </r>
       <r>   27.9040    0.0000 </r>
       <r>   28.0468    0.0000 </r>
       <r>   29.1369    0.0000 </r>
       <r>   29.1426    0.0000 </r>
       <r>   30.3369    0.0000 </r>
       <r>   30.3706    0.0000 </r>
      </set>
      <set comment="kpoint 6">
       <r>  -19.4470    1.0000 </r>
       <r>   -9.9066    1.0000 </r>
       <r>   -7.2422    1.0000 </r>
       <r>   -7.0594    1.0000 </r>
       <r>    3.9343    0.0000 </r>
       <r>    4.6149    0.0000 </r>
       <r>    5.1662    0.0000 </r>
       <r>    5.9064    0.0000 </r>
       <r>    6.2037    0.0000 </r>
       <r>    8.9846    0.0000 </r>
       <r>   10.2715    0.0000 </r>
       <r>   12.5485    0.0000 </r>
       <r>   13.7448    0.0000 </r>
       <r>   14.7298    0.0000 </r>
       <r>   16.9997    0.0000 </r>
       <r>   17.7956    0.0000 </r>
       <r>   18.8863    0.0000 </r>
       <r>   20.6753    0.0000 </r>
       <r>   20.6918    0.0000 </r>
       <r>   21.3896    0.0000 </r>
       <r>   23.4405    0.0000 </r>
       <r>   23.9333    0.0000 </r>
       <r>   25.5731    0.0000 </r>
       <r>   25.5970    0.0000 </r>
       <r>   26.6335    0.0000 </r>
       <r>   27.1275    0.0000 </r>
       <r>   28.2273    0.0000 </r>
       <r>   28.3062    0.0000 </r>
       <r>   29.4369    0.0000 </r>
       <r>   29.4530    0.0000 </r>
      </set>
      <set comment="kpoint 7">
       <r>  -18.6685    1.0000 </r>
       <r>  -11.3731    1.0000 </r>
       <r>   -7.5231    1.0000 </r>
       <r>   -6.3692    1.0000 </r>
       <r>    3.1375    0.0000 </r>
       <r>    5.0100    0.0000 </r>
       <r>    5.9307    0.0000 </r>
       <r>    6.1787    0.0000 </r>
       <r>    7.0656    0.0000 </r>
       <r>   10.0082    0.0000 </r>
       <r>   11.3258    0.0000 </r>
       <r>   14.0061    0.0000 </r>
       <r>   14.4402    0.0000 </r>
       <r>   14.9693    0.0000 </r>
       <r>   16.6572    0.0000 </r>
       <r>   16.9165    0.0000 </r>
       <r>   17.9623    0.0000 </r>
       <r>   18.6524    0.0000 </r>
       <r>   18.9827    0.0000 </r>
       <r>   20.7040    0.0000 </r>
       <r>   22.1079    0.0000 </r>
       <r>   22.5116    0.0000 </r>
       <r>   25.0899    0.0000 </r>
       <r>   25.4395    0.0000 </r>
       <r>   26.3969    0.0000 </r>
       <r>   27.0808    0.0000 </r>
       <r>   27.2886    0.0000 </r>
       <r>   28.0397    0.0000 </r>
       <r>   28.7322    0.0000 </r>
       <r>   29.1800    0.0000 </r>
      </set>
      <set comment="kpoint 8">
       <r>  -17.7658    1.0000 </r>
       <r>  -12.7931    1.0000 </r>
       <r>   -7.8701    1.0000 </r>
       <r>   -5.4194    1.0000 </r>
       <r>    1.6692    0.0000 </r>
       <r>    5.7239    0.0000 </r>
       <r>    6.3231    0.0000 </r>
       <r>    7.4394    0.0000 </r>
       <r>    8.3500    0.0000 </r>
       <r>   11.1701    0.0000 </r>
       <r>   12.5500    0.0000 </r>
       <r>   12.9191    0.0000 </r>
       <r>   13.9525    0.0000 </r>
       <r>   15.2198    0.0000 </r>
       <r>   16.1206    0.0000 </r>
       <r>   16.2110    0.0000 </r>
       <r>   17.6040    0.0000 </r>
       <r>   18.0816    0.0000 </r>
       <r>   19.0655    0.0000 </r>
       <r>   20.2119    0.0000 </r>
       <r>   20.7916    0.0000 </r>
       <r>   20.9498    0.0000 </r>
       <r>   24.8200    0.0000 </r>
       <r>   25.1918    0.0000 </r>
       <r>   25.8504    0.0000 </r>
       <r>   26.6925    0.0000 </r>
       <r>   26.8148    0.0000 </r>
       <r>   27.6308    0.0000 </r>
       <r>   28.2065    0.0000 </r>
       <r>   28.2287    0.0000 </r>
      </set>
      <set comment="kpoint 9">
       <r>  -16.7696    1.0000 </r>
       <r>  -14.1093    1.0000 </r>
       <r>   -8.0841    1.0000 </r>
       <r>   -4.5352    1.0000 </r>
       <r>    0.4551    0.0000 </r>
       <r>    5.6294    0.0000 </r>
       <r>    7.7666    0.0000 </r>
       <r>    8.8773    0.0000 </r>
       <r>    9.8305    0.0000 </r>
       <r>   11.1632    0.0000 </r>
       <r>   12.0000    0.0000 </r>
       <r>   12.7193    0.0000 </r>
       <r>   13.3243    0.0000 </r>
       <r>   13.9522    0.0000 </r>
       <r>   15.3382    0.0000 </r>
       <r>   16.8211    0.0000 </r>
       <r>   17.5654    0.0000 </r>
       <r>   17.6972    0.0000 </r>
       <r>   19.6817    0.0000 </r>
       <r>   19.9157    0.0000 </r>
       <r>   20.4934    0.0000 </r>
       <r>   20.7325    0.0000 </r>
       <r>   23.9803    0.0000 </r>
       <r>   24.1749    0.0000 </r>
       <r>   25.4926    0.0000 </r>
       <r>   26.1311    0.0000 </r>
       <r>   26.7409    0.0000 </r>
       <r>   27.0323    0.0000 </r>
       <r>   27.8786    0.0000 </r>
       <r>   28.3436    0.0000 </r>
      </set>
      <set comment="kpoint 10">
       <r>  -16.0195    1.0000 </r>
       <r>  -14.9675    1.0000 </r>
       <r>   -8.1562    1.0000 </r>
       <r>   -4.1124    1.0000 </r>
       <r>   -0.0806    0.0000 </r>
       <r>    5.5929    0.0000 </r>
       <r>    9.3236    0.0000 </r>
       <r>    9.4704    0.0000 </r>
       <r>   10.3252    0.0000 </r>
       <r>   10.6239    0.0000 </r>
       <r>   11.4744    0.0000 </r>
       <r>   11.5245    0.0000 </r>
       <r>   13.4548    0.0000 </r>
       <r>   14.5526    0.0000 </r>
       <r>   15.3725    0.0000 </r>
       <r>   15.5084    0.0000 </r>
       <r>   17.5116    0.0000 </r>
       <r>   18.0949    0.0000 </r>
       <r>   19.7793    0.0000 </r>
       <r>   19.8169    0.0000 </r>
       <r>   20.7371    0.0000 </r>
       <r>   21.2445    0.0000 </r>
       <r>   23.2869    0.0000 </r>
       <r>   23.6199    0.0000 </r>
       <r>   25.3613    0.0000 </r>
       <r>   25.8563    0.0000 </r>
       <r>   26.5090    0.0000 </r>
       <r>   27.0594    0.0000 </r>
       <r>   27.7646    0.0000 </r>
       <r>   28.2456    0.0000 </r>
      </set>
      <set comment="kpoint 11">
       <r>  -21.0313    1.0000 </r>
       <r>   -9.0951    1.0000 </r>
       <r>   -5.6156    1.0000 </r>
       <r>   -5.2554    1.0000 </r>
       <r>    1.7606    0.0000 </r>
       <r>    2.9021    0.0000 </r>
       <r>    3.7612    0.0000 </r>
       <r>    6.6912    0.0000 </r>
       <r>    6.8760    0.0000 </r>
       <r>    7.3747    0.0000 </r>
       <r>    8.1334    0.0000 </r>
       <r>    8.8898    0.0000 </r>
       <r>   11.1075    0.0000 </r>
       <r>   13.0810    0.0000 </r>
       <r>   14.9422    0.0000 </r>
       <r>   21.0273    0.0000 </r>
       <r>   21.3684    0.0000 </r>
       <r>   24.0204    0.0000 </r>
       <r>   24.1693    0.0000 </r>
       <r>   25.2305    0.0000 </r>
       <r>   28.0668    0.0000 </r>
       <r>   28.8583    0.0000 </r>
       <r>   29.2471    0.0000 </r>
       <r>   30.7033    0.0000 </r>
       <r>   30.7453    0.0000 </r>
       <r>   31.0019    0.0000 </r>
       <r>   31.1479    0.0000 </r>
       <r>   31.9134    0.0000 </r>
       <r>   32.4895    0.0000 </r>
       <r>   34.1398    0.0000 </r>
      </set>
      <set comment="kpoint 12">
       <r>  -20.7409    1.0000 </r>
       <r>   -8.7504    1.0000 </r>
       <r>   -6.5583    1.0000 </r>
       <r>   -5.7948    1.0000 </r>
       <r>    2.1567    0.0000 </r>
       <r>    3.2976    0.0000 </r>
       <r>    4.1595    0.0000 </r>
       <r>    6.8021    0.0000 </r>
       <r>    7.2590    0.0000 </r>
       <r>    7.9954    0.0000 </r>
       <r>    8.2863    0.0000 </r>
       <r>    8.5319    0.0000 </r>
       <r>   11.7563    0.0000 </r>
       <r>   13.4189    0.0000 </r>
       <r>   15.3258    0.0000 </r>
       <r>   20.6060    0.0000 </r>
       <r>   22.0368    0.0000 </r>
       <r>   22.9730    0.0000 </r>
       <r>   24.2428    0.0000 </r>
       <r>   24.4097    0.0000 </r>
       <r>   26.0147    0.0000 </r>
       <r>   27.6504    0.0000 </r>
       <r>   27.8046    0.0000 </r>
       <r>   28.0433    0.0000 </r>
       <r>   28.2603    0.0000 </r>
       <r>   29.6653    0.0000 </r>
       <r>   29.6923    0.0000 </r>
       <r>   31.7136    0.0000 </r>
       <r>   32.1091    0.0000 </r>
       <r>   32.5710    0.0000 </r>
      </set>
      <set comment="kpoint 13">
       <r>  -20.3072    1.0000 </r>
       <r>   -8.2390    1.0000 </r>
       <r>   -7.7894    1.0000 </r>
       <r>   -6.4131    1.0000 </r>
       <r>    2.7506    0.0000 </r>
       <r>    3.8879    0.0000 </r>
       <r>    4.7564    0.0000 </r>
       <r>    6.7529    0.0000 </r>
       <r>    6.7862    0.0000 </r>
       <r>    7.8407    0.0000 </r>
       <r>    9.1106    0.0000 </r>
       <r>    9.5773    0.0000 </r>
       <r>   12.7252    0.0000 </r>
       <r>   13.8958    0.0000 </r>
       <r>   15.8933    0.0000 </r>
       <r>   19.4034    0.0000 </r>
       <r>   22.1295    0.0000 </r>
       <r>   22.7724    0.0000 </r>
       <r>   22.9829    0.0000 </r>
       <r>   23.6607    0.0000 </r>
       <r>   24.9225    0.0000 </r>
       <r>   25.2357    0.0000 </r>
       <r>   25.2422    0.0000 </r>
       <r>   26.6671    0.0000 </r>
       <r>   27.6856    0.0000 </r>
       <r>   28.4807    0.0000 </r>
       <r>   28.8527    0.0000 </r>
       <r>   29.3858    0.0000 </r>
       <r>   30.0332    0.0000 </r>
       <r>   31.6535    0.0000 </r>
      </set>
      <set comment="kpoint 14">
       <r>  -19.7326    1.0000 </r>
       <r>   -9.1787    1.0000 </r>
       <r>   -7.5694    1.0000 </r>
       <r>   -7.0125    1.0000 </r>
       <r>    3.5410    0.0000 </r>
       <r>    4.6478    0.0000 </r>
       <r>    5.4109    0.0000 </r>
       <r>    5.5482    0.0000 </r>
       <r>    6.5864    0.0000 </r>
       <r>    8.5982    0.0000 </r>
       <r>    9.8848    0.0000 </r>
       <r>   11.1021    0.0000 </r>
       <r>   13.8475    0.0000 </r>
       <r>   14.4417    0.0000 </r>
       <r>   16.6360    0.0000 </r>
       <r>   18.0939    0.0000 </r>
       <r>   20.0933    0.0000 </r>
       <r>   21.2777    0.0000 </r>
       <r>   21.9382    0.0000 </r>
       <r>   22.5474    0.0000 </r>
       <r>   23.7871    0.0000 </r>
       <r>   23.9539    0.0000 </r>
       <r>   25.4713    0.0000 </r>
       <r>   25.9861    0.0000 </r>
       <r>   26.4537    0.0000 </r>
       <r>   27.0153    0.0000 </r>
       <r>   27.0860    0.0000 </r>
       <r>   27.6990    0.0000 </r>
       <r>   29.7743    0.0000 </r>
       <r>   30.6391    0.0000 </r>
      </set>
      <set comment="kpoint 15">
       <r>  -19.0212    1.0000 </r>
       <r>  -10.6259    1.0000 </r>
       <r>   -7.5358    1.0000 </r>
       <r>   -6.7577    1.0000 </r>
       <r>    3.8480    0.0000 </r>
       <r>    4.5252    0.0000 </r>
       <r>    5.6866    0.0000 </r>
       <r>    6.3123    0.0000 </r>
       <r>    6.6074    0.0000 </r>
       <r>    9.5309    0.0000 </r>
       <r>   10.8459    0.0000 </r>
       <r>   12.6415    0.0000 </r>
       <r>   14.8135    0.0000 </r>
       <r>   14.8355    0.0000 </r>
       <r>   17.0777    0.0000 </r>
       <r>   17.5150    0.0000 </r>
       <r>   17.9388    0.0000 </r>
       <r>   19.3798    0.0000 </r>
       <r>   19.6438    0.0000 </r>
       <r>   21.5131    0.0000 </r>
       <r>   23.1536    0.0000 </r>
       <r>   23.3294    0.0000 </r>
       <r>   24.4081    0.0000 </r>
       <r>   25.4695    0.0000 </r>
       <r>   25.4983    0.0000 </r>
       <r>   26.1732    0.0000 </r>
       <r>   26.5846    0.0000 </r>
       <r>   27.6071    0.0000 </r>
       <r>   28.9201    0.0000 </r>
       <r>   29.7987    0.0000 </r>
      </set>
      <set comment="kpoint 16">
       <r>  -18.1799    1.0000 </r>
       <r>  -12.0613    1.0000 </r>
       <r>   -7.9497    1.0000 </r>
       <r>   -5.8372    1.0000 </r>
       <r>    2.3539    0.0000 </r>
       <r>    5.6856    0.0000 </r>
       <r>    6.1788    0.0000 </r>
       <r>    6.8479    0.0000 </r>
       <r>    7.7572    0.0000 </r>
       <r>   10.6120    0.0000 </r>
       <r>   11.9871    0.0000 </r>
       <r>   13.3471    0.0000 </r>
       <r>   14.4069    0.0000 </r>
       <r>   15.2756    0.0000 </r>
       <r>   16.3633    0.0000 </r>
       <r>   16.3923    0.0000 </r>
       <r>   18.0972    0.0000 </r>
       <r>   18.2543    0.0000 </r>
       <r>   18.6315    0.0000 </r>
       <r>   20.2519    0.0000 </r>
       <r>   21.6963    0.0000 </r>
       <r>   22.1605    0.0000 </r>
       <r>   23.7629    0.0000 </r>
       <r>   25.1059    0.0000 </r>
       <r>   25.5053    0.0000 </r>
       <r>   25.5674    0.0000 </r>
       <r>   26.0637    0.0000 </r>
       <r>   27.8703    0.0000 </r>
       <r>   28.1554    0.0000 </r>
       <r>   29.0137    0.0000 </r>
      </set>
      <set comment="kpoint 17">
       <r>  -17.2247    1.0000 </r>
       <r>  -13.4305    1.0000 </r>
       <r>   -8.2345    1.0000 </r>
       <r>   -4.8907    1.0000 </r>
       <r>    0.9918    0.0000 </r>
       <r>    5.9991    0.0000 </r>
       <r>    7.0914    0.0000 </r>
       <r>    8.1932    0.0000 </r>
       <r>    9.1401    0.0000 </r>
       <r>   11.7327    0.0000 </r>
       <r>   12.0821    0.0000 </r>
       <r>   13.1823    0.0000 </r>
       <r>   13.3027    0.0000 </r>
       <r>   14.3077    0.0000 </r>
       <r>   15.5479    0.0000 </r>
       <r>   16.4289    0.0000 </r>
       <r>   17.8643    0.0000 </r>
       <r>   17.9050    0.0000 </r>
       <r>   19.5370    0.0000 </r>
       <r>   19.5462    0.0000 </r>
       <r>   20.6816    0.0000 </r>
       <r>   21.4659    0.0000 </r>
       <r>   23.3807    0.0000 </r>
       <r>   24.5605    0.0000 </r>
       <r>   24.7138    0.0000 </r>
       <r>   25.2726    0.0000 </r>
       <r>   25.5876    0.0000 </r>
       <r>   26.9722    0.0000 </r>
       <r>   27.8790    0.0000 </r>
       <r>   28.6675    0.0000 </r>
      </set>
      <set comment="kpoint 18">
       <r>  -16.2388    1.0000 </r>
       <r>  -14.6284    1.0000 </r>
       <r>   -8.3794    1.0000 </r>
       <r>   -4.1632    1.0000 </r>
       <r>    0.0475    0.0000 </r>
       <r>    5.9298    0.0000 </r>
       <r>    8.6287    0.0000 </r>
       <r>    9.6842    0.0000 </r>
       <r>   10.3271    0.0000 </r>
       <r>   10.7193    0.0000 </r>
       <r>   11.3166    0.0000 </r>
       <r>   12.4607    0.0000 </r>
       <r>   13.0976    0.0000 </r>
       <r>   14.7336    0.0000 </r>
       <r>   14.8111    0.0000 </r>
       <r>   16.1274    0.0000 </r>
       <r>   17.1984    0.0000 </r>
       <r>   17.8392    0.0000 </r>
       <r>   20.0179    0.0000 </r>
       <r>   20.0793    0.0000 </r>
       <r>   20.9621    0.0000 </r>
       <r>   21.0426    0.0000 </r>
       <r>   23.2108    0.0000 </r>
       <r>   23.8263    0.0000 </r>
       <r>   23.8405    0.0000 </r>
       <r>   25.0418    0.0000 </r>
       <r>   25.2748    0.0000 </r>
       <r>   26.1095    0.0000 </r>
       <r>   28.4268    0.0000 </r>
       <r>   28.4684    0.0000 </r>
      </set>
      <set comment="kpoint 19">
       <r>  -20.3793    1.0000 </r>
       <r>   -8.3235    1.0000 </r>
       <r>   -7.4575    1.0000 </r>
       <r>   -6.4979    1.0000 </r>
       <r>    2.6520    0.0000 </r>
       <r>    3.7906    0.0000 </r>
       <r>    4.6578    0.0000 </r>
       <r>    7.0013    0.0000 </r>
       <r>    7.2235    0.0000 </r>
       <r>    7.7358    0.0000 </r>
       <r>    8.7770    0.0000 </r>
       <r>    9.0235    0.0000 </r>
       <r>   12.7484    0.0000 </r>
       <r>   13.8063    0.0000 </r>
       <r>   15.7990    0.0000 </r>
       <r>   19.3428    0.0000 </r>
       <r>   22.4223    0.0000 </r>
       <r>   22.8049    0.0000 </r>
       <r>   23.5803    0.0000 </r>
       <r>   24.4990    0.0000 </r>
       <r>   24.8027    0.0000 </r>
       <r>   25.3361    0.0000 </r>
       <r>   26.4248    0.0000 </r>
       <r>   26.5351    0.0000 </r>
       <r>   26.8785    0.0000 </r>
       <r>   26.9619    0.0000 </r>
       <r>   28.8769    0.0000 </r>
       <r>   30.5663    0.0000 </r>
       <r>   30.6422    0.0000 </r>
       <r>   30.7174    0.0000 </r>
      </set>
      <set comment="kpoint 20">
       <r>  -19.8759    1.0000 </r>
       <r>   -8.5927    1.0000 </r>
       <r>   -7.7343    1.0000 </r>
       <r>   -7.2370    1.0000 </r>
       <r>    3.3444    0.0000 </r>
       <r>    4.4755    0.0000 </r>
       <r>    5.3548    0.0000 </r>
       <r>    5.7766    0.0000 </r>
       <r>    7.4283    0.0000 </r>
       <r>    8.3942    0.0000 </r>
       <r>    9.5965    0.0000 </r>
       <r>    9.7327    0.0000 </r>
       <r>   14.0423    0.0000 </r>
       <r>   14.2484    0.0000 </r>
       <r>   16.4510    0.0000 </r>
       <r>   17.9588    0.0000 </r>
       <r>   21.4236    0.0000 </r>
       <r>   22.1712    0.0000 </r>
       <r>   22.8428    0.0000 </r>
       <r>   23.0759    0.0000 </r>
       <r>   23.5909    0.0000 </r>
       <r>   24.4809    0.0000 </r>
       <r>   24.6045    0.0000 </r>
       <r>   25.4626    0.0000 </r>
       <r>   25.6614    0.0000 </r>
       <r>   26.1673    0.0000 </r>
       <r>   28.2200    0.0000 </r>
       <r>   28.2902    0.0000 </r>
       <r>   28.9647    0.0000 </r>
       <r>   29.8972    0.0000 </r>
      </set>
      <set comment="kpoint 21">
       <r>  -19.2341    1.0000 </r>
       <r>   -9.9034    1.0000 </r>
       <r>   -7.8766    1.0000 </r>
       <r>   -6.9941    1.0000 </r>
       <r>    4.2325    0.0000 </r>
       <r>    4.3831    0.0000 </r>
       <r>    5.3737    0.0000 </r>
       <r>    6.2467    0.0000 </r>
       <r>    7.3466    0.0000 </r>
       <r>    9.2232    0.0000 </r>
       <r>   10.5395    0.0000 </r>
       <r>   10.9193    0.0000 </r>
       <r>   14.4841    0.0000 </r>
       <r>   15.3402    0.0000 </r>
       <r>   17.0973    0.0000 </r>
       <r>   17.2662    0.0000 </r>
       <r>   19.1494    0.0000 </r>
       <r>   20.1570    0.0000 </r>
       <r>   20.9461    0.0000 </r>
       <r>   22.3429    0.0000 </r>
       <r>   22.5070    0.0000 </r>
       <r>   23.7618    0.0000 </r>
       <r>   24.0082    0.0000 </r>
       <r>   24.6990    0.0000 </r>
       <r>   24.7855    0.0000 </r>
       <r>   25.8262    0.0000 </r>
       <r>   26.4522    0.0000 </r>
       <r>   27.2715    0.0000 </r>
       <r>   28.2533    0.0000 </r>
       <r>   29.0409    0.0000 </r>
      </set>
      <set comment="kpoint 22">
       <r>  -18.4592    1.0000 </r>
       <r>  -11.2855    1.0000 </r>
       <r>   -8.3851    1.0000 </r>
       <r>   -6.1249    1.0000 </r>
       <r>    2.9509    0.0000 </r>
       <r>    5.3130    0.0000 </r>
       <r>    6.4348    0.0000 </r>
       <r>    7.1131    0.0000 </r>
       <r>    7.3983    0.0000 </r>
       <r>   10.1909    0.0000 </r>
       <r>   11.5909    0.0000 </r>
       <r>   12.2275    0.0000 </r>
       <r>   14.1592    0.0000 </r>
       <r>   15.8182    0.0000 </r>
       <r>   16.9119    0.0000 </r>
       <r>   17.4667    0.0000 </r>
       <r>   18.2098    0.0000 </r>
       <r>   18.3401    0.0000 </r>
       <r>   18.9723    0.0000 </r>
       <r>   21.0249    0.0000 </r>
       <r>   21.6880    0.0000 </r>
       <r>   22.7596    0.0000 </r>
       <r>   23.1032    0.0000 </r>
       <r>   23.7410    0.0000 </r>
       <r>   24.3039    0.0000 </r>
       <r>   25.1795    0.0000 </r>
       <r>   25.7799    0.0000 </r>
       <r>   27.5806    0.0000 </r>
       <r>   27.8116    0.0000 </r>
       <r>   28.5245    0.0000 </r>
      </set>
      <set comment="kpoint 23">
       <r>  -17.5616    1.0000 </r>
       <r>  -12.6565    1.0000 </r>
       <r>   -8.7540    1.0000 </r>
       <r>   -5.1756    1.0000 </r>
       <r>    1.5535    0.0000 </r>
       <r>    6.5664    0.0000 </r>
       <r>    7.0056    0.0000 </r>
       <r>    7.6747    0.0000 </r>
       <r>    8.6467    0.0000 </r>
       <r>   11.1911    0.0000 </r>
       <r>   12.5966    0.0000 </r>
       <r>   12.8849    0.0000 </r>
       <r>   13.5356    0.0000 </r>
       <r>   14.9002    0.0000 </r>
       <r>   15.7695    0.0000 </r>
       <r>   16.1969    0.0000 </r>
       <r>   18.2766    0.0000 </r>
       <r>   18.6608    0.0000 </r>
       <r>   19.2378    0.0000 </r>
       <r>   19.4767    0.0000 </r>
       <r>   21.0273    0.0000 </r>
       <r>   21.4297    0.0000 </r>
       <r>   22.3766    0.0000 </r>
       <r>   23.2107    0.0000 </r>
       <r>   23.7875    0.0000 </r>
       <r>   24.5882    0.0000 </r>
       <r>   25.6234    0.0000 </r>
       <r>   27.0993    0.0000 </r>
       <r>   27.4364    0.0000 </r>
       <r>   27.8091    0.0000 </r>
      </set>
      <set comment="kpoint 24">
       <r>  -16.5731    1.0000 </r>
       <r>  -13.9429    1.0000 </r>
       <r>   -8.9777    1.0000 </r>
       <r>   -4.2825    1.0000 </r>
       <r>    0.3737    0.0000 </r>
       <r>    6.8630    0.0000 </r>
       <r>    8.0525    0.0000 </r>
       <r>    9.0503    0.0000 </r>
       <r>   10.1202    0.0000 </r>
       <r>   11.3567    0.0000 </r>
       <r>   11.6575    0.0000 </r>
       <r>   12.9913    0.0000 </r>
       <r>   13.5310    0.0000 </r>
       <r>   14.1858    0.0000 </r>
       <r>   14.8366    0.0000 </r>
       <r>   16.0211    0.0000 </r>
       <r>   17.4183    0.0000 </r>
       <r>   18.0928    0.0000 </r>
       <r>   19.7337    0.0000 </r>
       <r>   20.1011    0.0000 </r>
       <r>   20.9370    0.0000 </r>
       <r>   20.9989    0.0000 </r>
       <r>   21.7312    0.0000 </r>
       <r>   22.9112    0.0000 </r>
       <r>   23.2294    0.0000 </r>
       <r>   24.0029    0.0000 </r>
       <r>   25.0690    0.0000 </r>
       <r>   26.0784    0.0000 </r>
       <r>   26.8363    0.0000 </r>
       <r>   27.2862    0.0000 </r>
      </set>
      <set comment="kpoint 25">
       <r>  -15.8319    1.0000 </r>
       <r>  -14.7856    1.0000 </r>
       <r>   -9.0527    1.0000 </r>
       <r>   -3.8470    1.0000 </r>
       <r>   -0.1604    0.0000 </r>
       <r>    6.8283    0.0000 </r>
       <r>    9.5794    0.0000 </r>
       <r>    9.7438    0.0000 </r>
       <r>   10.1919    0.0000 </r>
       <r>   10.9229    0.0000 </r>
       <r>   11.7436    0.0000 </r>
       <r>   11.8071    0.0000 </r>
       <r>   12.9920    0.0000 </r>
       <r>   14.8475    0.0000 </r>
       <r>   15.3195    0.0000 </r>
       <r>   15.7066    0.0000 </r>
       <r>   16.5918    0.0000 </r>
       <r>   17.6230    0.0000 </r>
       <r>   20.6370    0.0000 </r>
       <r>   20.6502    0.0000 </r>
       <r>   20.7264    0.0000 </r>
       <r>   21.0192    0.0000 </r>
       <r>   21.1128    0.0000 </r>
       <r>   22.8596    0.0000 </r>
       <r>   22.9554    0.0000 </r>
       <r>   23.8062    0.0000 </r>
       <r>   24.7968    0.0000 </r>
       <r>   25.3191    0.0000 </r>
       <r>   26.7444    0.0000 </r>
       <r>   27.1535    0.0000 </r>
      </set>
      <set comment="kpoint 26">
       <r>  -19.3053    1.0000 </r>
       <r>   -9.5114    1.0000 </r>
       <r>   -8.1550    1.0000 </r>
       <r>   -7.0733    1.0000 </r>
       <r>    4.1347    0.0000 </r>
       <r>    4.5978    0.0000 </r>
       <r>    5.2550    0.0000 </r>
       <r>    6.1518    0.0000 </r>
       <r>    8.2353    0.0000 </r>
       <r>    9.1152    0.0000 </r>
       <r>    9.7376    0.0000 </r>
       <r>   10.4785    0.0000 </r>
       <r>   14.3381    0.0000 </r>
       <r>   15.5272    0.0000 </r>
       <r>   17.0214    0.0000 </r>
       <r>   17.1769    0.0000 </r>
       <r>   20.4335    0.0000 </r>
       <r>   20.8111    0.0000 </r>
       <r>   20.9536    0.0000 </r>
       <r>   22.3073    0.0000 </r>
       <r>   22.3830    0.0000 </r>
       <r>   22.7103    0.0000 </r>
       <r>   24.0920    0.0000 </r>
       <r>   24.2776    0.0000 </r>
       <r>   24.6305    0.0000 </r>
       <r>   26.4921    0.0000 </r>
       <r>   26.9553    0.0000 </r>
       <r>   26.9870    0.0000 </r>
       <r>   28.1032    0.0000 </r>
       <r>   28.1337    0.0000 </r>
      </set>
      <set comment="kpoint 27">
       <r>  -18.5997    1.0000 </r>
       <r>  -10.6210    1.0000 </r>
       <r>   -8.9167    1.0000 </r>
       <r>   -6.2712    1.0000 </r>
       <r>    3.3173    0.0000 </r>
       <r>    5.1189    0.0000 </r>
       <r>    6.2161    0.0000 </r>
       <r>    7.1439    0.0000 </r>
       <r>    8.4956    0.0000 </r>
       <r>    9.9590    0.0000 </r>
       <r>   10.5751    0.0000 </r>
       <r>   11.4409    0.0000 </r>
       <r>   13.8398    0.0000 </r>
       <r>   16.6508    0.0000 </r>
       <r>   17.1019    0.0000 </r>
       <r>   18.0213    0.0000 </r>
       <r>   18.4985    0.0000 </r>
       <r>   19.1472    0.0000 </r>
       <r>   19.8345    0.0000 </r>
       <r>   20.2779    0.0000 </r>
       <r>   21.0246    0.0000 </r>
       <r>   21.8005    0.0000 </r>
       <r>   22.8403    0.0000 </r>
       <r>   23.7891    0.0000 </r>
       <r>   24.3610    0.0000 </r>
       <r>   25.1760    0.0000 </r>
       <r>   25.9434    0.0000 </r>
       <r>   26.3890    0.0000 </r>
       <r>   27.2697    0.0000 </r>
       <r>   28.2597    0.0000 </r>
      </set>
      <set comment="kpoint 28">
       <r>  -17.7671    1.0000 </r>
       <r>  -11.8722    1.0000 </r>
       <r>   -9.4486    1.0000 </r>
       <r>   -5.3576    1.0000 </r>
       <r>    2.0004    0.0000 </r>
       <r>    6.2926    0.0000 </r>
       <r>    7.3421    0.0000 </r>
       <r>    8.2589    0.0000 </r>
       <r>    8.4622    0.0000 </r>
       <r>   10.7837    0.0000 </r>
       <r>   11.7403    0.0000 </r>
       <r>   12.5810    0.0000 </r>
       <r>   13.3243    0.0000 </r>
       <r>   15.6649    0.0000 </r>
       <r>   16.7482    0.0000 </r>
       <r>   17.3786    0.0000 </r>
       <r>   18.1985    0.0000 </r>
       <r>   18.7118    0.0000 </r>
       <r>   19.0981    0.0000 </r>
       <r>   19.6955    0.0000 </r>
       <r>   19.9145    0.0000 </r>
       <r>   21.1943    0.0000 </r>
       <r>   21.4045    0.0000 </r>
       <r>   22.1813    0.0000 </r>
       <r>   23.9438    0.0000 </r>
       <r>   24.2287    0.0000 </r>
       <r>   25.8022    0.0000 </r>
       <r>   26.0376    0.0000 </r>
       <r>   26.4619    0.0000 </r>
       <r>   28.6974    0.0000 </r>
      </set>
      <set comment="kpoint 29">
       <r>  -16.8249    1.0000 </r>
       <r>  -13.1437    1.0000 </r>
       <r>   -9.7848    1.0000 </r>
       <r>   -4.4048    1.0000 </r>
       <r>    0.7544    0.0000 </r>
       <r>    7.6400    0.0000 </r>
       <r>    8.2472    0.0000 </r>
       <r>    8.5751    0.0000 </r>
       <r>    9.7273    0.0000 </r>
       <r>   11.2265    0.0000 </r>
       <r>   12.0657    0.0000 </r>
       <r>   13.3790    0.0000 </r>
       <r>   13.8000    0.0000 </r>
       <r>   14.3856    0.0000 </r>
       <r>   15.0959    0.0000 </r>
       <r>   15.8168    0.0000 </r>
       <r>   18.3242    0.0000 </r>
       <r>   18.6848    0.0000 </r>
       <r>   19.1026    0.0000 </r>
       <r>   19.1176    0.0000 </r>
       <r>   19.9739    0.0000 </r>
       <r>   20.7420    0.0000 </r>
       <r>   20.7916    0.0000 </r>
       <r>   21.3996    0.0000 </r>
       <r>   23.2421    0.0000 </r>
       <r>   23.5866    0.0000 </r>
       <r>   25.2636    0.0000 </r>
       <r>   25.2973    0.0000 </r>
       <r>   26.6222    0.0000 </r>
       <r>   27.0264    0.0000 </r>
      </set>
      <set comment="kpoint 30">
       <r>  -15.8574    1.0000 </r>
       <r>  -14.2885    1.0000 </r>
       <r>   -9.9490    1.0000 </r>
       <r>   -3.6444    1.0000 </r>
       <r>   -0.1609    0.0000 </r>
       <r>    8.1484    0.0000 </r>
       <r>    9.1788    0.0000 </r>
       <r>    9.6591    0.0000 </r>
       <r>   10.7879    0.0000 </r>
       <r>   11.2858    0.0000 </r>
       <r>   11.2888    0.0000 </r>
       <r>   12.9527    0.0000 </r>
       <r>   12.9924    0.0000 </r>
       <r>   14.9535    0.0000 </r>
       <r>   14.9658    0.0000 </r>
       <r>   15.7869    0.0000 </r>
       <r>   16.8368    0.0000 </r>
       <r>   17.8524    0.0000 </r>
       <r>   18.5604    0.0000 </r>
       <r>   19.6170    0.0000 </r>
       <r>   20.2888    0.0000 </r>
       <r>   20.7830    0.0000 </r>
       <r>   21.0766    0.0000 </r>
       <r>   21.4490    0.0000 </r>
       <r>   22.3057    0.0000 </r>
       <r>   23.7586    0.0000 </r>
       <r>   24.6901    0.0000 </r>
       <r>   24.7741    0.0000 </r>
       <r>   25.6016    0.0000 </r>
       <r>   26.7011    0.0000 </r>
      </set>
      <set comment="kpoint 31">
       <r>  -17.8361    1.0000 </r>
       <r>  -11.4201    1.0000 </r>
       <r>   -9.8819    1.0000 </r>
       <r>   -5.4199    1.0000 </r>
       <r>    2.1754    0.0000 </r>
       <r>    6.1959    0.0000 </r>
       <r>    7.2248    0.0000 </r>
       <r>    8.2337    0.0000 </r>
       <r>    9.6673    0.0000 </r>
       <r>   10.4917    0.0000 </r>
       <r>   10.6287    0.0000 </r>
       <r>   12.4726    0.0000 </r>
       <r>   13.1852    0.0000 </r>
       <r>   16.8668    0.0000 </r>
       <r>   17.3853    0.0000 </r>
       <r>   17.6884    0.0000 </r>
       <r>   17.9734    0.0000 </r>
       <r>   18.7324    0.0000 </r>
       <r>   18.8643    0.0000 </r>
       <r>   19.3781    0.0000 </r>
       <r>   19.4082    0.0000 </r>
       <r>   20.1651    0.0000 </r>
       <r>   21.6615    0.0000 </r>
       <r>   22.9383    0.0000 </r>
       <r>   23.3561    0.0000 </r>
       <r>   23.8406    0.0000 </r>
       <r>   24.9722    0.0000 </r>
       <r>   26.1781    0.0000 </r>
       <r>   26.7316    0.0000 </r>
       <r>   29.0068    0.0000 </r>
      </set>
      <set comment="kpoint 32">
       <r>  -16.9555    1.0000 </r>
       <r>  -12.4180    1.0000 </r>
       <r>  -10.5388    1.0000 </r>
       <r>   -4.4786    1.0000 </r>
       <r>    1.0132    0.0000 </r>
       <r>    7.4550    0.0000 </r>
       <r>    8.3070    0.0000 </r>
       <r>    9.4903    0.0000 </r>
       <r>    9.8505    0.0000 </r>
       <r>   10.8758    0.0000 </r>
       <r>   11.3919    0.0000 </r>
       <r>   13.3871    0.0000 </r>
       <r>   13.6557    0.0000 </r>
       <r>   15.2446    0.0000 </r>
       <r>   16.1862    0.0000 </r>
       <r>   16.7874    0.0000 </r>
       <r>   17.0537    0.0000 </r>
       <r>   17.9057    0.0000 </r>
       <r>   18.7055    0.0000 </r>
       <r>   19.1399    0.0000 </r>
       <r>   19.6136    0.0000 </r>
       <r>   20.3102    0.0000 </r>
       <r>   20.4602    0.0000 </r>
       <r>   21.8070    0.0000 </r>
       <r>   22.4558    0.0000 </r>
       <r>   22.9061    0.0000 </r>
       <r>   24.0407    0.0000 </r>
       <r>   25.7212    0.0000 </r>
       <r>   26.8833    0.0000 </r>
       <r>   28.2838    0.0000 </r>
      </set>
      <set comment="kpoint 33">
       <r>  -15.9919    1.0000 </r>
       <r>  -13.5266    1.0000 </r>
       <r>  -10.8795    1.0000 </r>
       <r>   -3.5534    1.0000 </r>
       <r>   -0.0522    0.0000 </r>
       <r>    8.8708    0.0000 </r>
       <r>    9.1469    0.0000 </r>
       <r>    9.7031    0.0000 </r>
       <r>   10.9771    0.0000 </r>
       <r>   11.1445    0.0000 </r>
       <r>   11.6620    0.0000 </r>
       <r>   13.8582    0.0000 </r>
       <r>   13.8997    0.0000 </r>
       <r>   14.8340    0.0000 </r>
       <r>   14.9194    0.0000 </r>
       <r>   15.5695    0.0000 </r>
       <r>   16.5897    0.0000 </r>
       <r>   17.3735    0.0000 </r>
       <r>   18.4538    0.0000 </r>
       <r>   18.4575    0.0000 </r>
       <r>   18.8330    0.0000 </r>
       <r>   20.2245    0.0000 </r>
       <r>   20.5217    0.0000 </r>
       <r>   21.9522    0.0000 </r>
       <r>   22.0162    0.0000 </r>
       <r>   22.7263    0.0000 </r>
       <r>   23.7533    0.0000 </r>
       <r>   24.4747    0.0000 </r>
       <r>   26.4025    0.0000 </r>
       <r>   27.2421    0.0000 </r>
      </set>
      <set comment="kpoint 34">
       <r>  -15.2703    1.0000 </r>
       <r>  -14.3087    1.0000 </r>
       <r>  -10.9841    1.0000 </r>
       <r>   -3.0562    1.0000 </r>
       <r>   -0.5978    0.0000 </r>
       <r>    9.3768    0.0000 </r>
       <r>    9.6308    0.0000 </r>
       <r>   10.2920    0.0000 </r>
       <r>   10.5425    0.0000 </r>
       <r>   11.8187    0.0000 </r>
       <r>   12.5009    0.0000 </r>
       <r>   12.6325    0.0000 </r>
       <r>   12.9224    0.0000 </r>
       <r>   14.9348    0.0000 </r>
       <r>   15.7295    0.0000 </r>
       <r>   16.0539    0.0000 </r>
       <r>   16.4225    0.0000 </r>
       <r>   16.5390    0.0000 </r>
       <r>   17.8093    0.0000 </r>
       <r>   18.0723    0.0000 </r>
       <r>   18.3857    0.0000 </r>
       <r>   19.9716    0.0000 </r>
       <r>   21.1179    0.0000 </r>
       <r>   21.8568    0.0000 </r>
       <r>   22.1767    0.0000 </r>
       <r>   22.7591    0.0000 </r>
       <r>   23.7582    0.0000 </r>
       <r>   24.3530    0.0000 </r>
       <r>   25.1093    0.0000 </r>
       <r>   27.2926    0.0000 </r>
      </set>
      <set comment="kpoint 35">
       <r>  -16.0458    1.0000 </r>
       <r>  -13.0476    1.0000 </r>
       <r>  -11.4133    1.0000 </r>
       <r>   -3.5308    1.0000 </r>
       <r>    0.0099    0.0000 </r>
       <r>    8.7792    0.0000 </r>
       <r>    8.9459    0.0000 </r>
       <r>   10.8189    0.0000 </r>
       <r>   11.0362    0.0000 </r>
       <r>   11.1088    0.0000 </r>
       <r>   11.2444    0.0000 </r>
       <r>   14.2946    0.0000 </r>
       <r>   14.6945    0.0000 </r>
       <r>   14.8427    0.0000 </r>
       <r>   15.1142    0.0000 </r>
       <r>   15.3709    0.0000 </r>
       <r>   16.4836    0.0000 </r>
       <r>   16.6422    0.0000 </r>
       <r>   16.7528    0.0000 </r>
       <r>   19.1949    0.0000 </r>
       <r>   19.3149    0.0000 </r>
       <r>   19.7643    0.0000 </r>
       <r>   20.6421    0.0000 </r>
       <r>   21.3419    0.0000 </r>
       <r>   21.6041    0.0000 </r>
       <r>   22.3409    0.0000 </r>
       <r>   23.4781    0.0000 </r>
       <r>   24.9714    0.0000 </r>
       <r>   26.8808    0.0000 </r>
       <r>   27.6255    0.0000 </r>
      </set>
      <set comment="kpoint 36">
       <r>  -15.1152    1.0000 </r>
       <r>  -13.8584    1.0000 </r>
       <r>  -11.8426    1.0000 </r>
       <r>   -2.6579    1.0000 </r>
       <r>   -0.8858    0.0000 </r>
       <r>    9.0017    0.0000 </r>
       <r>   10.1823    0.0000 </r>
       <r>   10.9710    0.0000 </r>
       <r>   11.4580    0.0000 </r>
       <r>   12.0551    0.0000 </r>
       <r>   12.3970    0.0000 </r>
       <r>   13.6641    0.0000 </r>
       <r>   13.8056    0.0000 </r>
       <r>   14.7146    0.0000 </r>
       <r>   15.0102    0.0000 </r>
       <r>   15.3339    0.0000 </r>
       <r>   15.9556    0.0000 </r>
       <r>   16.2390    0.0000 </r>
       <r>   16.6220    0.0000 </r>
       <r>   17.8915    0.0000 </r>
       <r>   18.4851    0.0000 </r>
       <r>   19.7069    0.0000 </r>
       <r>   19.7796    0.0000 </r>
       <r>   21.0631    0.0000 </r>
       <r>   22.2107    0.0000 </r>
       <r>   22.6583    0.0000 </r>
       <r>   23.9320    0.0000 </r>
       <r>   24.3463    0.0000 </r>
       <r>   25.9881    0.0000 </r>
       <r>   26.5159    0.0000 </r>
[...]
       <r>   20.7804    0.0000 </r>
       <r>   21.0113    0.0000 </r>
       <r>   23.7672    0.0000 </r>
       <r>   26.1100    0.0000 </r>
       <r>   26.1988    0.0000 </r>
       <r>   28.4667    0.0000 </r>
       <r>   30.1162    0.0000 </r>
       <r>   30.5895    0.0000 </r>
       <r>   32.0845    0.0000 </r>
       <r>   32.3402    0.0000 </r>
       <r>   33.7211    0.0000 </r>
       <r>   33.7635    0.0000 </r>
       <r>   33.8607    0.0000 </r>
       <r>   34.0506    0.0000 </r>
       <r>   34.3481    0.0000 </r>
      </set>
      <set comment="kpoint 167">
       <r>  -21.2392    1.0000 </r>
       <r>   -9.3429    1.0000 </r>
       <r>   -4.8306    1.0000 </r>
       <r>   -4.8103    1.0000 </r>
       <r>    1.4776    0.0000 </r>
       <r>    2.6191    0.0000 </r>
       <r>    3.4768    0.0000 </r>
       <r>    6.5526    0.0000 </r>
       <r>    6.5917    0.0000 </r>
       <r>    6.6001    0.0000 </r>
       <r>    7.8440    0.0000 </r>
       <r>    9.5906    0.0000 </r>
       <r>   10.7026    0.0000 </r>
       <r>   12.8314    0.0000 </r>
       <r>   14.6649    0.0000 </r>
       <r>   20.7377    0.0000 </r>
       <r>   21.0050    0.0000 </r>
       <r>   23.7506    0.0000 </r>
       <r>   26.2694    0.0000 </r>
       <r>   26.3026    0.0000 </r>
       <r>   28.6881    0.0000 </r>
       <r>   29.9487    0.0000 </r>
       <r>   30.2600    0.0000 </r>
       <r>   32.6099    0.0000 </r>
       <r>   32.8102    0.0000 </r>
       <r>   33.7118    0.0000 </r>
       <r>   33.9262    0.0000 </r>
       <r>   34.0491    0.0000 </r>
       <r>   34.2199    0.0000 </r>
       <r>   34.7405    0.0000 </r>
      </set>
      <set comment="kpoint 168">
       <r>  -21.2470    1.0000 </r>
       <r>   -9.3522    1.0000 </r>
       <r>   -4.7981    1.0000 </r>
       <r>   -4.7930    1.0000 </r>
       <r>    1.4670    0.0000 </r>
       <r>    2.6084    0.0000 </r>
       <r>    3.4662    0.0000 </r>
       <r>    6.5479    0.0000 </r>
       <r>    6.5578    0.0000 </r>
       <r>    6.5898    0.0000 </r>
       <r>    7.8330    0.0000 </r>
       <r>    9.6180    0.0000 </r>
       <r>   10.6888    0.0000 </r>
       <r>   12.8220    0.0000 </r>
       <r>   14.6545    0.0000 </r>
       <r>   20.7118    0.0000 </r>
       <r>   21.0011    0.0000 </r>
       <r>   23.7406    0.0000 </r>
       <r>   26.3630    0.0000 </r>
       <r>   26.3701    0.0000 </r>
       <r>   28.9240    0.0000 </r>
       <r>   29.8425    0.0000 </r>
       <r>   29.9573    0.0000 </r>
       <r>   33.1045    0.0000 </r>
       <r>   33.2105    0.0000 </r>
       <r>   33.6877    0.0000 </r>
       <r>   33.9204    0.0000 </r>
       <r>   33.9966    0.0000 </r>
       <r>   34.5421    0.0000 </r>
       <r>   34.5852    0.0000 </r>
      </set>
      <set comment="kpoint 169">
       <r> -128.6899    1.0000 </r>
       <r>  -21.2497    1.0000 </r>
       <r>   -9.3553    1.0000 </r>
       <r>   -4.7873    1.0000 </r>
       <r>   -4.7873    1.0000 </r>
       <r>    1.4635    0.0000 </r>
       <r>    2.6049    0.0000 </r>
       <r>    3.4626    0.0000 </r>
       <r>    6.5464    0.0000 </r>
       <r>    6.5464    0.0000 </r>
       <r>    6.5863    0.0000 </r>
       <r>    7.8294    0.0000 </r>
       <r>    9.6272    0.0000 </r>
       <r>   10.6841    0.0000 </r>
       <r>   12.8188    0.0000 </r>
       <r>   14.6510    0.0000 </r>
       <r>   20.7032    0.0000 </r>
       <r>   20.9997    0.0000 </r>
       <r>   23.7373    0.0000 </r>
       <r>   26.3936    0.0000 </r>
       <r>   26.3936    0.0000 </r>
       <r>   29.0528    0.0000 </r>
       <r>   29.8060    0.0000 </r>
       <r>   29.8060    0.0000 </r>
       <r>   33.4006    0.0000 </r>
       <r>   33.4006    0.0000 </r>
       <r>   33.6779    0.0000 </r>
       <r>   33.8938    0.0000 </r>
       <r>   33.8938    0.0000 </r>
       <r>   34.3650    0.0000 </r>
      </set>
     </set>
    </set>
   </array>
  </eigenvalues>
  <separator name="orbital magnetization" >
   <v name="MAGDIPOLOUT">      0.00000000      0.00000000      0.00000000</v>
  </separator>
  <dos>
   <i name="efermi">     -1.75810542 </i>
   <total>
    <array>
     <dimension dim="1">gridpoints</dimension>
     <dimension dim="2">spin</dimension>
     <field>energy</field>
     <field>total</field>
     <field>integrated</field>
     <set>
      <set comment="spin 1">
       <r>  -136.8639     0.0000     0.0000 </r>
       <r>  -136.2644     0.0000     0.0000 </r>
       <r>  -135.6650     0.0000     0.0000 </r>
       <r>  -135.0656     0.0000     0.0000 </r>
       <r>  -134.4662     0.0000     0.0000 </r>
       <r>  -133.8667     0.0000     0.0000 </r>
       <r>  -133.2673     0.0000     0.0000 </r>
       <r>  -132.6679     0.0000     0.0000 </r>
       <r>  -132.0684     0.0000     0.0000 </r>
       <r>  -131.4690     0.0000     0.0000 </r>
       <r>  -130.8696     0.0000     0.0000 </r>
       <r>  -130.2702     0.0000     0.0000 </r>
       <r>  -129.6707     0.0000     0.0000 </r>
       <r>  -129.0713     0.0000     0.0000 </r>
       <r>  -128.4719     0.0000     0.0000 </r>
       <r>  -127.8725     0.0000     0.0000 </r>
       <r>  -127.2730     0.0000     0.0000 </r>
       <r>  -126.6736     0.0000     0.0000 </r>
       <r>  -126.0742     0.0000     0.0000 </r>
       <r>  -125.4748     0.0000     0.0000 </r>
       <r>  -124.8753     0.0000     0.0000 </r>
       <r>  -124.2759     0.0000     0.0000 </r>
       <r>  -123.6765     0.0000     0.0000 </r>
       <r>  -123.0771     0.0000     0.0000 </r>
       <r>  -122.4776     0.0000     0.0000 </r>
       <r>  -121.8782     0.0000     0.0000 </r>
       <r>  -121.2788     0.0000     0.0000 </r>
       <r>  -120.6794     0.0000     0.0000 </r>
       <r>  -120.0799     0.0000     0.0000 </r>
       <r>  -119.4805     0.0000     0.0000 </r>
       <r>  -118.8811     0.0000     0.0000 </r>
       <r>  -118.2816     0.0000     0.0000 </r>
       <r>  -117.6822     0.0000     0.0000 </r>
       <r>  -117.0828     0.0000     0.0000 </r>
       <r>  -116.4834     0.0000     0.0000 </r>
       <r>  -115.8839     0.0000     0.0000 </r>
       <r>  -115.2845     0.0000     0.0000 </r>
       <r>  -114.6851     0.0000     0.0000 </r>
       <r>  -114.0857     0.0000     0.0000 </r>
       <r>  -113.4862     0.0000     0.0000 </r>
       <r>  -112.8868     0.0000     0.0000 </r>
       <r>  -112.2874     0.0000     0.0000 </r>
       <r>  -111.6880     0.0000     0.0000 </r>
       <r>  -111.0885     0.0000     0.0000 </r>
       <r>  -110.4891     0.0000     0.0000 </r>
       <r>  -109.8897     0.0000     0.0000 </r>
       <r>  -109.2903     0.0000     0.0000 </r>
       <r>  -108.6908     0.0000     0.0000 </r>
       <r>  -108.0914     0.0000     0.0000 </r>
       <r>  -107.4920     0.0000     0.0000 </r>
       <r>  -106.8926     0.0000     0.0000 </r>
       <r>  -106.2931     0.0000     0.0000 </r>
       <r>  -105.6937     0.0000     0.0000 </r>
       <r>  -105.0943     0.0000     0.0000 </r>
       <r>  -104.4948     0.0000     0.0000 </r>
       <r>  -103.8954     0.0000     0.0000 </r>
       <r>  -103.2960     0.0000     0.0000 </r>
       <r>  -102.6966     0.0000     0.0000 </r>
       <r>  -102.0971     0.0000     0.0000 </r>
       <r>  -101.4977     0.0000     0.0000 </r>
       <r>  -100.8983     0.0000     0.0000 </r>
       <r>  -100.2989     0.0000     0.0000 </r>
       <r>   -99.6994     0.0000     0.0000 </r>
       <r>   -99.1000     0.0000     0.0000 </r>
       <r>   -98.5006     0.0000     0.0000 </r>
       <r>   -97.9012     0.0000     0.0000 </r>
       <r>   -97.3017     0.0000     0.0000 </r>
       <r>   -96.7023     0.0000     0.0000 </r>
       <r>   -96.1029     0.0000     0.0000 </r>
       <r>   -95.5035     0.0000     0.0000 </r>
       <r>   -94.9040     0.0000     0.0000 </r>
       <r>   -94.3046     0.0000     0.0000 </r>
       <r>   -93.7052     0.0000     0.0000 </r>
       <r>   -93.1058     0.0000     0.0000 </r>
       <r>   -92.5063     0.0000     0.0000 </r>
       <r>   -91.9069     0.0000     0.0000 </r>
       <r>   -91.3075     0.0000     0.0000 </r>
       <r>   -90.7080     0.0000     0.0000 </r>
       <r>   -90.1086     0.0000     0.0000 </r>
       <r>   -89.5092     0.0000     0.0000 </r>
       <r>   -88.9098     0.0000     0.0000 </r>
       <r>   -88.3103     0.0000     0.0000 </r>
       <r>   -87.7109     0.0000     0.0000 </r>
       <r>   -87.1115     0.0000     0.0000 </r>
       <r>   -86.5121     0.0000     0.0000 </r>
       <r>   -85.9126     0.0000     0.0000 </r>
       <r>   -85.3132     0.0000     0.0000 </r>
       <r>   -84.7138     0.0000     0.0000 </r>
       <r>   -84.1144     0.0000     0.0000 </r>
       <r>   -83.5149     0.0000     0.0000 </r>
       <r>   -82.9155     0.0000     0.0000 </r>
       <r>   -82.3161     0.0000     0.0000 </r>
       <r>   -81.7167     0.0000     0.0000 </r>
       <r>   -81.1172     0.0000     0.0000 </r>
       <r>   -80.5178     0.0000     0.0000 </r>
       <r>   -79.9184     0.0000     0.0000 </r>
       <r>   -79.3190     0.0000     0.0000 </r>
       <r>   -78.7195     0.0000     0.0000 </r>
       <r>   -78.1201     0.0000     0.0000 </r>
       <r>   -77.5207     0.0000     0.0000 </r>
       <r>   -76.9212     0.0000     0.0000 </r>
       <r>   -76.3218     0.0000     0.0000 </r>
       <r>   -75.7224     0.0000     0.0000 </r>
       <r>   -75.1230     0.0000     0.0000 </r>
       <r>   -74.5235     0.0000     0.0000 </r>
       <r>   -73.9241     0.0000     0.0000 </r>
       <r>   -73.3247     0.0000     0.0000 </r>
       <r>   -72.7253     0.0000     0.0000 </r>
       <r>   -72.1258     0.0000     0.0000 </r>
       <r>   -71.5264     0.0000     0.0000 </r>
       <r>   -70.9270     0.0000     0.0000 </r>
       <r>   -70.3276     0.0000     0.0000 </r>
       <r>   -69.7281     0.0000     0.0000 </r>
       <r>   -69.1287     0.0000     0.0000 </r>
       <r>   -68.5293     0.0000     0.0000 </r>
       <r>   -67.9299     0.0000     0.0000 </r>
       <r>   -67.3304     0.0000     0.0000 </r>
       <r>   -66.7310     0.0000     0.0000 </r>
       <r>   -66.1316     0.0000     0.0000 </r>
       <r>   -65.5322     0.0000     0.0000 </r>
       <r>   -64.9327     0.0000     0.0000 </r>
       <r>   -64.3333     0.0000     0.0000 </r>
       <r>   -63.7339     0.0000     0.0000 </r>
       <r>   -63.1344     0.0000     0.0000 </r>
       <r>   -62.5350     0.0000     0.0000 </r>
       <r>   -61.9356     0.0000     0.0000 </r>
       <r>   -61.3362     0.0000     0.0000 </r>
       <r>   -60.7367     0.0000     0.0000 </r>
       <r>   -60.1373     0.0000     0.0000 </r>
       <r>   -59.5379     0.0000     0.0000 </r>
       <r>   -58.9385     0.0000     0.0000 </r>
       <r>   -58.3390     0.0000     0.0000 </r>
       <r>   -57.7396     0.0000     0.0000 </r>
       <r>   -57.1402     0.0000     0.0000 </r>
       <r>   -56.5408     0.0000     0.0000 </r>
       <r>   -55.9413     0.0000     0.0000 </r>
       <r>   -55.3419     0.0000     0.0000 </r>
       <r>   -54.7425     0.0000     0.0000 </r>
       <r>   -54.1431     0.0000     0.0000 </r>
       <r>   -53.5436     0.0000     0.0000 </r>
       <r>   -52.9442     0.0000     0.0000 </r>
       <r>   -52.3448     0.0000     0.0000 </r>
       <r>   -51.7453     0.0000     0.0000 </r>
       <r>   -51.1459     0.0000     0.0000 </r>
       <r>   -50.5465     0.0000     0.0000 </r>
       <r>   -49.9471     0.0000     0.0000 </r>
       <r>   -49.3476     0.0000     0.0000 </r>
       <r>   -48.7482     0.0000     0.0000 </r>
       <r>   -48.1488     0.0000     0.0000 </r>
       <r>   -47.5494     0.0000     0.0000 </r>
       <r>   -46.9499     0.0000     0.0000 </r>
       <r>   -46.3505     0.0000     0.0000 </r>
       <r>   -45.7511     0.0000     0.0000 </r>
       <r>   -45.1517     0.0000     0.0000 </r>
       <r>   -44.5522     0.0000     0.0000 </r>
       <r>   -43.9528     0.0000     0.0000 </r>
       <r>   -43.3534     0.0000     0.0000 </r>
       <r>   -42.7540     0.0000     0.0000 </r>
       <r>   -42.1545     0.0000     0.0000 </r>
       <r>   -41.5551     0.0000     0.0000 </r>
       <r>   -40.9557     0.0000     0.0000 </r>
       <r>   -40.3563     0.0000     0.0000 </r>
       <r>   -39.7568     0.0000     0.0000 </r>
       <r>   -39.1574     0.0000     0.0000 </r>
       <r>   -38.5580     0.0000     0.0000 </r>
       <r>   -37.9585     0.0000     0.0000 </r>
       <r>   -37.3591     0.0000     0.0000 </r>
       <r>   -36.7597     0.0000     0.0000 </r>
       <r>   -36.1603     0.0000     0.0000 </r>
       <r>   -35.5608     0.0000     0.0000 </r>
       <r>   -34.9614     0.0000     0.0000 </r>
       <r>   -34.3620     0.0000     0.0000 </r>
       <r>   -33.7626     0.0000     0.0000 </r>
       <r>   -33.1631     0.0000     0.0000 </r>
       <r>   -32.5637     0.0000     0.0000 </r>
       <r>   -31.9643     0.0000     0.0000 </r>
       <r>   -31.3649     0.0000     0.0000 </r>
       <r>   -30.7654     0.0000     0.0000 </r>
       <r>   -30.1660     0.0000     0.0000 </r>
       <r>   -29.5666     0.0000     0.0000 </r>
       <r>   -28.9672     0.0000     0.0000 </r>
       <r>   -28.3677     0.0000     0.0000 </r>
       <r>   -27.7683     0.0000     0.0000 </r>
       <r>   -27.1689     0.0000     0.0000 </r>
       <r>   -26.5695     0.0000     0.0000 </r>
       <r>   -25.9700     0.0000     0.0000 </r>
       <r>   -25.3706     0.0000     0.0000 </r>
       <r>   -24.7712     0.0000     0.0000 </r>
       <r>   -24.1717     0.0000     0.0000 </r>
       <r>   -23.5723     0.0000     0.0000 </r>
       <r>   -22.9729     0.0000     0.0000 </r>
       <r>   -22.3735     0.0000     0.0000 </r>
       <r>   -21.7740     0.0000     0.0000 </r>
       <r>   -21.1746     0.0425     0.0255 </r>
       <r>   -20.5752     0.2300     0.2181 </r>
       <r>   -19.9758     0.1856     0.3767 </r>
       <r>   -19.3763     0.1853     0.5617 </r>
       <r>   -18.7769     0.1236     0.7470 </r>
       <r>   -18.1775     0.1887     0.9711 </r>
       <r>   -17.5781     0.2868     1.1781 </r>
       <r>   -16.9786     0.1553     1.3215 </r>
       <r>   -16.3792     0.1854     1.5617 </r>
       <r>   -15.7798     0.3956     1.8729 </r>
       <r>   -15.1804     0.0655     1.9158 </r>
       <r>   -14.5809     0.2052     2.1106 </r>
       <r>   -13.9815     0.3054     2.3003 </r>
       <r>   -13.3821     0.2366     2.5801 </r>
       <r>   -12.7827     0.2235     2.7204 </r>
       <r>   -12.1832     0.1442     2.8951 </r>
       <r>   -11.5838     0.2472     3.1173 </r>
       <r>   -10.9844     0.2163     3.3210 </r>
       <r>   -10.3849     0.3707     3.6358 </r>
       <r>    -9.7855     0.4312     3.8943 </r>
       <r>    -9.1861     0.3087     4.1171 </r>
       <r>    -8.5867     0.5902     4.6254 </r>
       <r>    -7.9872     0.7587     5.1708 </r>
       <r>    -7.3878     0.4928     5.7337 </r>
       <r>    -6.7884     0.4563     6.1192 </r>
       <r>    -6.1890     0.5592     6.5142 </r>
       <r>    -5.5895     0.4182     6.8371 </r>
       <r>    -4.9901     0.4383     7.1825 </r>
       <r>    -4.3907     0.2863     7.4617 </r>
       <r>    -3.7913     0.2127     7.6892 </r>
       <r>    -3.1918     0.1854     7.8765 </r>
       <r>    -2.5924     0.1196     7.9853 </r>
       <r>    -1.9930     0.0000     7.9877 </r>
       <r>    -1.3936     0.0412     8.0123 </r>
       <r>    -0.7941     0.1230     8.0861 </r>
       <r>    -0.1947     0.0312     8.1422 </r>
       <r>     0.4047     0.2902     8.5011 </r>
       <r>     1.0041     0.2516     8.7002 </r>
       <r>     1.6036     0.1804     8.8797 </r>
       <r>     2.2030     0.3455     9.1700 </r>
       <r>     2.8024     0.2486     9.4453 </r>
       <r>     3.4019     0.4873     9.8909 </r>
       <r>     4.0013     0.4924    10.3446 </r>
       <r>     4.6007     0.6228    10.8671 </r>
       <r>     5.2001     0.3010    11.2668 </r>
       <r>     5.7996     0.7394    11.9741 </r>
       <r>     6.3990     1.1722    12.8446 </r>
       <r>     6.9984     1.2430    13.9056 </r>
       <r>     7.5978     1.0918    14.8890 </r>
       <r>     8.1973     0.7864    15.7059 </r>
       <r>     8.7967     1.0781    16.8870 </r>
       <r>     9.3961     1.1967    17.8593 </r>
       <r>     9.9955     1.4349    19.0391 </r>
       <r>    10.5950     0.7194    19.7646 </r>
       <r>    11.1944     1.4627    21.0311 </r>
       <r>    11.7938     1.1334    22.3028 </r>
       <r>    12.3932     0.6170    22.8575 </r>
       <r>    12.9927     1.1992    23.9102 </r>
       <r>    13.5921     1.1922    24.9863 </r>
       <r>    14.1915     1.4918    26.0856 </r>
       <r>    14.7909     1.0228    27.0390 </r>
       <r>    15.3904     1.2540    28.5850 </r>
       <r>    15.9898     1.0549    29.4903 </r>
       <r>    16.5892     1.1387    30.5035 </r>
       <r>    17.1887     1.1588    31.7131 </r>
       <r>    17.7881     0.7683    32.5038 </r>
       <r>    18.3875     1.4138    34.0573 </r>
       <r>    18.9869     1.1198    35.1219 </r>
       <r>    19.5864     1.0823    36.3586 </r>
       <r>    20.1858     1.2022    37.6712 </r>
       <r>    20.7852     1.4725    38.9752 </r>
       <r>    21.3846     1.8215    40.5425 </r>
       <r>    21.9841     1.0465    41.6952 </r>
       <r>    22.5835     1.3393    43.0188 </r>
       <r>    23.1829     1.5555    44.3336 </r>
       <r>    23.7823     1.3238    45.6577 </r>
       <r>    24.3818     1.5936    47.3626 </r>
       <r>    24.9812     1.3726    48.6746 </r>
       <r>    25.5806     2.0919    50.4021 </r>
       <r>    26.1800     1.5877    51.8838 </r>
       <r>    26.7795     1.8960    53.1365 </r>
       <r>    27.3789     1.5220    54.4617 </r>
       <r>    27.9783     1.5208    55.4795 </r>
       <r>    28.5777     1.7515    56.8586 </r>
       <r>    29.1772     0.9948    57.6457 </r>
       <r>    29.7766     0.6569    58.1530 </r>
       <r>    30.3760     0.2741    58.4915 </r>
       <r>    30.9755     0.5701    58.9652 </r>
       <r>    31.5749     0.2484    59.1798 </r>
       <r>    32.1743     0.3617    59.5439 </r>
       <r>    32.7737     0.3239    59.7435 </r>
       <r>    33.3732     0.0045    59.8484 </r>
       <r>    33.9726     0.0907    59.9124 </r>
       <r>    34.5720     0.0721    59.9938 </r>
       <r>    35.1714     0.0103    60.0000 </r>
       <r>    35.7709     0.0000    60.0000 </r>
       <r>    36.3703     0.0000    60.0000 </r>
       <r>    36.9697     0.0000    60.0000 </r>
       <r>    37.5691     0.0000    60.0000 </r>
       <r>    38.1686     0.0000    60.0000 </r>
       <r>    38.7680     0.0000    60.0000 </r>
       <r>    39.3674     0.0000    60.0000 </r>
       <r>    39.9668     0.0000    60.0000 </r>
       <r>    40.5663     0.0000    60.0000 </r>
       <r>    41.1657     0.0000    60.0000 </r>
       <r>    41.7651     0.0000    60.0000 </r>
       <r>    42.3645     0.0000    60.0000 </r>
       <r>    42.9640     0.0000    60.0000 </r>
      </set>
     </set>
    </array>
   </total>
  </dos>
 </calculation>
 <structure name="finalpos" >
  <crystal>
   <varray name="basis" >
    <v>       2.46813324       0.00000000       0.00000000 </v>
    <v>       1.23406662       2.13746609       0.00000000 </v>
    <v>       0.00000000       0.00000000      12.00000000 </v>
   </varray>
   <i name="volume">     63.30661323 </i>
   <varray name="rec_basis" >
    <v>       0.40516451      -0.23392184       0.00000000 </v>
    <v>       0.00000000       0.46784368       0.00000000 </v>
    <v>       0.00000000       0.00000000       0.08333333 </v>
   </varray>
  </crystal>
  <varray name="positions" >
   <v>       0.00000000       0.00000000       0.50000000 </v>
   <v>       0.33333334       0.33333334       0.50000000 </v>
  </varray>
 </structure>
</modeling>
