unknown system                          
           1
     2.468133    0.000000    0.000000
     1.234067    2.137466    0.000000
     0.000000    0.000000   12.000000
   C 
     2
Direct configuration=     1
   0.00000000  0.00000000  0.50000000
   0.33333334  0.33333334  0.50000000
