   2   2   0   0
  0.3165331E+02  0.2468133E-09  0.2468133E-09  0.1200000E-08  0.5000000E-15
  1.000000000000000E-004
  CAR 
 unknown system                          
     12.85233181    -22.87356203  301     -1.75812436      1.00000000
    -22.874  0.0000E+00  0.0000E+00
    -22.754  0.0000E+00  0.0000E+00
    -22.635  0.0000E+00  0.0000E+00
    -22.516  0.0000E+00  0.0000E+00
    -22.397  0.0000E+00  0.0000E+00
    -22.278  0.0000E+00  0.0000E+00
    -22.159  0.0000E+00  0.0000E+00
    -22.040  0.0000E+00  0.0000E+00
    -21.921  0.0000E+00  0.0000E+00
    -21.802  0.0000E+00  0.0000E+00
    -21.683  0.0000E+00  0.0000E+00
    -21.564  0.0000E+00  0.0000E+00
    -21.445  0.1040E-07  0.1238E-08
    -21.325  0.1108E-01  0.1320E-02
    -21.206  0.1013E+01  0.1220E+00
    -21.087  0.8849E+00  0.2274E+00
    -20.968  0.5364E+00  0.2913E+00
    -20.849  0.4508E+00  0.3450E+00
    -20.730  0.2602E+00  0.3759E+00
    -20.611  0.4611E+00  0.4309E+00
    -20.492  0.1273E+00  0.4460E+00
    -20.373  0.4489E+00  0.4995E+00
    -20.254  0.4229E-01  0.5045E+00
    -20.135  0.4985E+00  0.5639E+00
    -20.015  0.2670E-01  0.5670E+00
    -19.896  0.2916E+00  0.6018E+00
    -19.777  0.2633E+00  0.6331E+00
    -19.658  0.6059E-01  0.6403E+00
    -19.539  0.2610E+00  0.6714E+00
    -19.420  0.2372E+00  0.6997E+00
    -19.301  0.1210E+00  0.7141E+00
    -19.182  0.1641E+00  0.7336E+00
    -19.063  0.2339E+00  0.7615E+00
    -18.944  0.1368E+00  0.7778E+00
    -18.825  0.1862E+00  0.7999E+00
    -18.706  0.2291E-01  0.8027E+00
    -18.586  0.2698E+00  0.8348E+00
    -18.467  0.2592E+00  0.8657E+00
    -18.348  0.8368E-02  0.8667E+00
    -18.229  0.1850E-01  0.8689E+00
    -18.110  0.3979E+00  0.9163E+00
    -17.991  0.1433E+00  0.9333E+00
    -17.872  0.8882E-04  0.9333E+00
    -17.753  0.2992E-02  0.9337E+00
    -17.634  0.4400E+00  0.9861E+00
    -17.515  0.1168E+00  0.1000E+01
    -17.396  0.8358E-05  0.1000E+01
    -17.277  0.3119E-02  0.1000E+01
    -17.157  0.2675E+00  0.1032E+01
    -17.038  0.2845E+00  0.1066E+01
    -16.919  0.4741E-02  0.1067E+01
    -16.800  0.2522E-02  0.1067E+01
    -16.681  0.2332E+00  0.1095E+01
    -16.562  0.1166E+00  0.1109E+01
    -16.443  0.2066E+00  0.1133E+01
    -16.324  0.1359E-01  0.1135E+01
    -16.205  0.2541E+00  0.1165E+01
    -16.086  0.3929E-01  0.1170E+01
    -15.967  0.1323E+01  0.1327E+01
    -15.847  0.1038E+01  0.1451E+01
    -15.728  0.5168E+00  0.1513E+01
    -15.609  0.4171E+00  0.1562E+01
    -15.490  0.3493E+00  0.1604E+01
    -15.371  0.3946E+00  0.1651E+01
    -15.252  0.4872E+00  0.1709E+01
    -15.133  0.2644E+00  0.1740E+01
    -15.014  0.3349E+00  0.1780E+01
    -14.895  0.1653E+01  0.1977E+01
    -14.776  0.1191E+01  0.2119E+01
    -14.657  0.1073E+01  0.2247E+01
    -14.538  0.6259E+00  0.2321E+01
    -14.418  0.6379E+00  0.2397E+01
    -14.299  0.1354E+01  0.2558E+01
    -14.180  0.9282E+00  0.2669E+01
    -14.061  0.1063E+01  0.2796E+01
    -13.942  0.2554E+00  0.2826E+01
    -13.823  0.6194E-01  0.2833E+01
    -13.704  0.4790E-04  0.2833E+01
    -13.585  0.1834E+00  0.2855E+01
    -13.466  0.3753E+00  0.2900E+01
    -13.347  0.1071E-02  0.2900E+01
    -13.228  0.4884E-03  0.2900E+01
    -13.108  0.1878E+00  0.2922E+01
    -12.989  0.1120E+00  0.2936E+01
    -12.870  0.2517E+00  0.2966E+01
    -12.751  0.8418E-02  0.2967E+01
    -12.632  0.1950E+00  0.2990E+01
    -12.513  0.8431E-01  0.3000E+01
    -12.394  0.6380E-03  0.3000E+01
    -12.275  0.5340E+00  0.3064E+01
    -12.156  0.8852E+00  0.3169E+01
    -12.037  0.5375E+00  0.3233E+01
    -11.918  0.2015E+00  0.3257E+01
    -11.799  0.3525E+00  0.3299E+01
    -11.679  0.1641E+00  0.3319E+01
    -11.560  0.6261E+00  0.3393E+01
    -11.441  0.3331E+00  0.3433E+01
    -11.322  0.2791E+00  0.3466E+01
    -11.203  0.5133E-02  0.3467E+01
    -11.084  0.2216E+00  0.3493E+01
    -10.965  0.6288E+00  0.3568E+01
    -10.846  0.2656E+00  0.3600E+01
    -10.727  0.2536E+00  0.3630E+01
    -10.608  0.6187E-01  0.3637E+01
    -10.489  0.3091E+00  0.3674E+01
    -10.369  0.4902E+00  0.3732E+01
    -10.250  0.5608E-01  0.3739E+01
    -10.131  0.3621E+00  0.3782E+01
    -10.012  0.4004E+00  0.3830E+01
     -9.893  0.4181E-01  0.3835E+01
     -9.774  0.4929E+00  0.3894E+01
     -9.655  0.5457E-01  0.3900E+01
     -9.536  0.2727E+00  0.3932E+01
     -9.417  0.5932E+00  0.4003E+01
     -9.298  0.1087E+01  0.4133E+01
     -9.179  0.1158E+01  0.4270E+01
     -9.060  0.6154E+00  0.4344E+01
     -8.940  0.8065E+00  0.4440E+01
     -8.821  0.6440E+00  0.4516E+01
     -8.702  0.5647E+00  0.4584E+01
     -8.583  0.4720E+00  0.4640E+01
     -8.464  0.6047E+00  0.4712E+01
     -8.345  0.9479E+00  0.4825E+01
     -8.226  0.3413E+00  0.4865E+01
     -8.107  0.1679E+01  0.5065E+01
     -7.988  0.7813E+00  0.5158E+01
     -7.869  0.6855E+00  0.5240E+01
     -7.750  0.7109E+00  0.5325E+01
     -7.631  0.3806E+00  0.5370E+01
     -7.511  0.3464E+00  0.5411E+01
     -7.392  0.6020E+00  0.5483E+01
     -7.273  0.6910E+00  0.5565E+01
     -7.154  0.4677E+00  0.5621E+01
     -7.035  0.3350E+00  0.5661E+01
     -6.916  0.2422E+00  0.5690E+01
     -6.797  0.8257E+00  0.5788E+01
     -6.678  0.2765E+00  0.5821E+01
     -6.559  0.6522E+00  0.5899E+01
     -6.440  0.2929E-01  0.5902E+01
     -6.321  0.7175E+00  0.5988E+01
     -6.201  0.5869E+00  0.6057E+01
     -6.082  0.3163E+00  0.6095E+01
     -5.963  0.3296E+00  0.6134E+01
     -5.844  0.3858E+00  0.6180E+01
     -5.725  0.9668E+00  0.6295E+01
     -5.606  0.6660E-01  0.6303E+01
     -5.487  0.7339E+00  0.6391E+01
     -5.368  0.2729E+00  0.6423E+01
     -5.249  0.7369E+00  0.6511E+01
     -5.130  0.6724E+00  0.6591E+01
     -5.011  0.6549E+00  0.6669E+01
     -4.892  0.7711E+00  0.6761E+01
     -4.772  0.1876E+01  0.6984E+01
     -4.653  0.5060E+00  0.7044E+01
     -4.534  0.2256E+00  0.7071E+01
     -4.415  0.2375E+00  0.7100E+01
     -4.296  0.6584E-02  0.7100E+01
     -4.177  0.2670E+00  0.7132E+01
     -4.058  0.1227E+01  0.7278E+01
     -3.939  0.9072E+00  0.7386E+01
     -3.820  0.4291E+00  0.7437E+01
     -3.701  0.3480E+00  0.7479E+01
     -3.582  0.3032E+00  0.7515E+01
     -3.462  0.3129E+00  0.7552E+01
     -3.343  0.4561E+00  0.7607E+01
     -3.224  0.2349E+00  0.7635E+01
     -3.105  0.2560E+00  0.7665E+01
     -2.986  0.1967E+00  0.7689E+01
     -2.867  0.1853E+00  0.7711E+01
     -2.748  0.4653E+00  0.7766E+01
     -2.629  0.1664E+00  0.7786E+01
     -2.510  0.1237E+00  0.7801E+01
     -2.391  0.2452E+00  0.7830E+01
     -2.272  0.2003E+00  0.7854E+01
     -2.153  0.3822E+00  0.7899E+01
     -2.033  0.4718E-01  0.7905E+01
     -1.914  0.2371E+00  0.7933E+01
     -1.795  0.1672E+00  0.7953E+01
     -1.676  0.9440E+00  0.8065E+01
     -1.557  0.5860E-01  0.8072E+01
     -1.438  0.2306E+00  0.8100E+01
     -1.319  0.1090E+00  0.8113E+01
     -1.200  0.4299E+00  0.8164E+01
     -1.081  0.2427E+00  0.8193E+01
     -0.962  0.1151E+00  0.8207E+01
     -0.843  0.2312E+00  0.8234E+01
     -0.724  0.3092E+00  0.8271E+01
     -0.604  0.4792E+00  0.8328E+01
     -0.485  0.2959E+00  0.8363E+01
     -0.366  0.3695E+00  0.8407E+01
     -0.247  0.5272E+00  0.8470E+01
     -0.128  0.1144E+01  0.8606E+01
     -0.009  0.1895E+01  0.8832E+01
      0.110  0.2804E+00  0.8865E+01
      0.229  0.1214E-01  0.8867E+01
      0.348  0.1537E-01  0.8868E+01
      0.467  0.2576E+00  0.8899E+01
      0.586  0.2526E+00  0.8929E+01
      0.706  0.3423E-01  0.8933E+01
      0.825  0.1387E-02  0.8933E+01
      0.944  0.2183E+00  0.8959E+01
      1.063  0.6018E-01  0.8967E+01
      1.182  0.3586E-01  0.8971E+01
      1.301  0.2405E+00  0.9000E+01
      1.420  0.8066E-01  0.9009E+01
      1.539  0.1305E+01  0.9165E+01
      1.658  0.7028E+00  0.9248E+01
      1.777  0.4427E+00  0.9301E+01
      1.896  0.3459E+00  0.9342E+01
      2.015  0.6088E+00  0.9415E+01
      2.135  0.1765E+00  0.9436E+01
      2.254  0.6154E+00  0.9509E+01
      2.373  0.2040E+00  0.9533E+01
      2.492  0.5268E-01  0.9540E+01
      2.611  0.9816E+00  0.9656E+01
      2.730  0.1311E+01  0.9813E+01
      2.849  0.5726E+00  0.9881E+01
      2.968  0.1136E+01  0.1002E+02
      3.087  0.3157E+00  0.1005E+02
      3.206  0.3790E+00  0.1010E+02
      3.325  0.4133E+00  0.1015E+02
      3.445  0.1124E+01  0.1028E+02
      3.564  0.1286E+01  0.1043E+02
      3.683  0.1210E+01  0.1058E+02
      3.802  0.8398E+00  0.1068E+02
      3.921  0.5399E+00  0.1074E+02
      4.040  0.7052E+00  0.1083E+02
      4.159  0.5656E+00  0.1089E+02
      4.278  0.7998E+00  0.1099E+02
      4.397  0.4357E+00  0.1104E+02
      4.516  0.8212E+00  0.1114E+02
      4.635  0.5967E+00  0.1121E+02
      4.754  0.4001E+00  0.1126E+02
      4.874  0.1990E+00  0.1128E+02
      4.993  0.7605E+00  0.1137E+02
      5.112  0.5082E+00  0.1143E+02
      5.231  0.5136E+00  0.1149E+02
      5.350  0.5970E+00  0.1157E+02
      5.469  0.2983E+00  0.1160E+02
      5.588  0.6873E+00  0.1168E+02
      5.707  0.1976E+01  0.1192E+02
      5.826  0.1252E+01  0.1207E+02
      5.945  0.1312E+01  0.1222E+02
      6.064  0.6466E+00  0.1230E+02
      6.183  0.5264E+00  0.1236E+02
      6.303  0.4355E-01  0.1237E+02
      6.422  0.8247E+00  0.1247E+02
      6.541  0.1654E+01  0.1266E+02
      6.660  0.2551E+01  0.1297E+02
      6.779  0.8008E+00  0.1306E+02
      6.898  0.3591E+00  0.1311E+02
      7.017  0.5409E+00  0.1317E+02
      7.136  0.7795E+00  0.1326E+02
      7.255  0.5335E+00  0.1333E+02
      7.374  0.6550E-01  0.1333E+02
      7.493  0.4220E+00  0.1338E+02
      7.613  0.3564E+00  0.1343E+02
      7.732  0.1588E+00  0.1345E+02
      7.851  0.3359E+00  0.1349E+02
      7.970  0.3865E+00  0.1353E+02
      8.089  0.3060E+00  0.1357E+02
      8.208  0.2973E+00  0.1360E+02
      8.327  0.2767E+00  0.1364E+02
      8.446  0.2933E+00  0.1367E+02
      8.565  0.2808E+00  0.1370E+02
      8.684  0.3955E+00  0.1375E+02
      8.803  0.2092E+00  0.1378E+02
      8.922  0.1614E+01  0.1397E+02
      9.042  0.1408E+01  0.1414E+02
      9.161  0.3103E+00  0.1417E+02
      9.280  0.5338E+00  0.1424E+02
      9.399  0.1875E+01  0.1446E+02
      9.518  0.1913E+01  0.1469E+02
      9.637  0.1357E+01  0.1485E+02
      9.756  0.1290E+01  0.1500E+02
      9.875  0.1337E+01  0.1516E+02
      9.994  0.5794E+00  0.1523E+02
     10.113  0.6786E+00  0.1531E+02
     10.232  0.4927E+00  0.1537E+02
     10.352  0.4167E+00  0.1542E+02
     10.471  0.1577E+00  0.1544E+02
     10.590  0.4503E+00  0.1549E+02
     10.709  0.6231E+00  0.1557E+02
     10.828  0.3465E+00  0.1561E+02
     10.947  0.5122E+00  0.1567E+02
     11.066  0.8958E+00  0.1578E+02
     11.185  0.1354E+01  0.1594E+02
     11.304  0.5158E+00  0.1600E+02
     11.423  0.8070E-02  0.1600E+02
     11.542  0.7961E-08  0.1600E+02
     11.661  0.0000E+00  0.1600E+02
     11.781  0.0000E+00  0.1600E+02
     11.900  0.0000E+00  0.1600E+02
     12.019  0.0000E+00  0.1600E+02
     12.138  0.0000E+00  0.1600E+02
     12.257  0.0000E+00  0.1600E+02
     12.376  0.0000E+00  0.1600E+02
     12.495  0.0000E+00  0.1600E+02
     12.614  0.0000E+00  0.1600E+02
     12.733  0.0000E+00  0.1600E+02
     12.852  0.0000E+00  0.1600E+02
