    2    2    1    1
  0.3165331E+02  0.2468133E-09  0.2468133E-09  0.1200000E-08  0.5000000E-15
  1.000000000000000E-004
  CAR 
 unknown system                          
      8     60      8
 
  0.0000000E+00  0.0000000E+00  0.0000000E+00  0.1666667E-01
      1        -21.249658   1.000000
      2         -9.355333   1.000000
      3         -4.787314   1.000000
      4         -4.787303   1.000000
      5          1.463234   0.000000
      6          2.605212   0.000000
      7          3.458685   0.000000
      8          6.586828   0.000000
 
  0.2631579E-01  0.2631579E-01  0.0000000E+00  0.1666667E-01
      1        -21.233322   1.000000
      2         -9.335821   1.000000
      3         -4.855366   1.000000
      4         -4.823188   1.000000
      5          1.485449   0.000000
      6          2.627459   0.000000
      7          3.481007   0.000000
      8          6.608531   0.000000
 
  0.5263158E-01  0.5263158E-01  0.0000000E+00  0.1666667E-01
      1        -21.184270   1.000000
      2         -9.277315   1.000000
      3         -5.055113   1.000000
      4         -4.927718   1.000000
      5          1.552098   0.000000
      6          2.694189   0.000000
      7          3.547981   0.000000
      8          6.579482   0.000000
 
  0.7894737E-01  0.7894737E-01  0.0000000E+00  0.1666667E-01
      1        -21.102619   1.000000
      2         -9.179986   1.000000
      3         -5.374472   1.000000
      4         -5.092338   1.000000
      5          1.663192   0.000000
      6          2.805343   0.000000
      7          3.659626   0.000000
      8          6.604114   0.000000
 
  0.1052632E+00  0.1052632E+00  0.0000000E+00  0.1666667E-01
      1        -20.988389   1.000000
      2         -9.044060   1.000000
      3         -5.796442   1.000000
      4         -5.305036   1.000000
      5          1.818732   0.000000
      6          2.960836   0.000000
      7          3.815949   0.000000
      8          6.616693   0.000000
 
  0.1315789E+00  0.1315789E+00  0.0000000E+00  0.1666667E-01
      1        -20.841754   1.000000
      2         -8.869934   1.000000
      3         -6.302203   1.000000
      4         -5.552573   1.000000
      5          2.018697   0.000000
      6          3.160506   0.000000
      7          4.016924   0.000000
      8          6.606088   0.000000
 
  0.1578947E+00  0.1578947E+00  0.0000000E+00  0.1666667E-01
      1        -20.662861   1.000000
      2         -8.658117   1.000000
      3         -6.873467   1.000000
      4         -5.822183   1.000000
      5          2.263035   0.000000
      6          3.404079   0.000000
      7          4.262466   0.000000
      8          6.568259   0.000000
 
  0.1842105E+00  0.1842105E+00  0.0000000E+00  0.1666667E-01
      1        -20.451882   1.000000
      2         -8.409295   1.000000
      3         -7.493784   1.000000
      4         -6.102535   1.000000
      5          2.551666   0.000000
      6          3.691018   0.000000
      7          4.552385   0.000000
      8          6.505124   0.000000
 
  0.2105263E+00  0.2105263E+00  0.0000000E+00  0.1666667E-01
      1        -20.209141   1.000000
      2         -8.149078   1.000000
      3         -8.124406   1.000000
      4         -6.384082   1.000000
      5          2.884465   0.000000
      6          4.019983   0.000000
      7          4.886252   0.000000
      8          6.422278   0.000000
 
  0.2368421E+00  0.2368421E+00  0.0000000E+00  0.1666667E-01
      1        -19.934972   1.000000
      2         -8.827537   1.000000
      3         -7.804682   1.000000
      4         -6.659037   1.000000
      5          3.261249   0.000000
      6          4.458864   0.000000
      7          5.262790   0.000000
      8          5.839201   0.000000
 
  0.2631579E+00  0.2631579E+00  0.0000000E+00  0.1666667E-01
      1        -19.629738   1.000000
      2         -9.519455   1.000000
      3         -7.451780   1.000000
      4         -6.921161   1.000000
      5          3.681737   0.000000
      6          4.730477   0.000000
      7          5.201881   0.000000
      8          5.675894   0.000000
 
  0.2894737E+00  0.2894737E+00  0.0000000E+00  0.1666667E-01
      1        -19.294039   1.000000
      2        -10.216748   1.000000
      3         -7.165515   1.000000
      4         -7.067990   1.000000
      5          4.145425   0.000000
      6          4.331017   0.000000
      7          5.336871   0.000000
      8          6.018988   0.000000
 
  0.3157895E+00  0.3157895E+00  0.0000000E+00  0.1666667E-01
      1        -18.928449   1.000000
      2        -10.912728   1.000000
      3         -7.388206   1.000000
      4         -6.656564   1.000000
      5          3.619078   0.000000
      6          4.651135   0.000000
      7          5.822143   0.000000
      8          5.984580   0.000000
 
  0.3421053E+00  0.3421053E+00  0.0000000E+00  0.1666667E-01
      1        -18.533920   1.000000
      2        -11.601699   1.000000
      3         -7.586197   1.000000
      4         -6.222291   1.000000
      5          2.898118   0.000000
      6          5.194090   0.000000
      7          5.905857   0.000000
      8          6.365267   0.000000
 
  0.3684211E+00  0.3684211E+00  0.0000000E+00  0.1666667E-01
      1        -18.111813   1.000000
      2        -12.278500   1.000000
      3         -7.757124   1.000000
      4         -5.772536   1.000000
      5          2.193726   0.000000
      6          5.690934   0.000000
      7          5.920959   0.000000
      8          6.953328   0.000000
 
  0.3947368E+00  0.3947368E+00  0.0000000E+00  0.1666667E-01
      1        -17.664335   1.000000
      2        -12.937948   1.000000
      3         -7.899165   1.000000
      4         -5.319190   1.000000
      5          1.524722   0.000000
      6          5.713965   0.000000
      7          6.463265   0.000000
      8          7.583087   0.000000
 
  0.4210526E+00  0.4210526E+00  0.0000000E+00  0.1666667E-01
      1        -17.195698   1.000000
      2        -13.573681   1.000000
      3         -8.010944   1.000000
      4         -4.882323   1.000000
      5          0.915801   0.000000
      6          5.665106   0.000000
      7          7.132672   0.000000
      8          8.252211   0.000000
 
  0.4473684E+00  0.4473684E+00  0.0000000E+00  0.1666667E-01
      1        -16.716535   1.000000
      2        -14.173440   1.000000
      3         -8.091465   1.000000
      4         -4.496439   1.000000
      5          0.404797   0.000000
      6          5.625704   0.000000
      7          7.847919   0.000000
      8          8.957511   0.000000
 
  0.4736842E+00  0.4736842E+00  0.0000000E+00  0.1666667E-01
      1        -16.263979   1.000000
      2        -14.698694   1.000000
      3         -8.140034   1.000000
      4         -4.217121   1.000000
      5          0.049540   0.000000
      6          5.601180   0.000000
      7          8.601962   0.000000
      8          9.691898   0.000000
 
  0.5000000E+00  0.5000000E+00  0.0000000E+00  0.1666667E-01
      1        -16.019529   1.000000
      2        -14.967496   1.000000
      3         -8.156276   1.000000
      4         -4.112409   1.000000
      5         -0.080635   0.000000
      6          5.592869   0.000000
      7          9.323489   0.000000
      8          9.470303   0.000000
 
  0.5000000E+00  0.5000000E+00  0.0000000E+00  0.1666667E-01
      1        -16.019529   1.000000
      2        -14.967496   1.000000
      3         -8.156276   1.000000
      4         -4.112409   1.000000
      5         -0.080635   0.000000
      6          5.592870   0.000000
      7          9.323482   0.000000
      8          9.470288   0.000000
 
  0.4912281E+00  0.5087719E+00  0.0000000E+00  0.1666667E-01
      1        -16.014847   1.000000
      2        -14.962869   1.000000
      3         -8.180920   1.000000
      4         -4.105782   1.000000
      5         -0.082199   0.000000
      6          5.626191   0.000000
      7          9.329955   0.000000
      8          9.477171   0.000000
 
  0.4824561E+00  0.5175439E+00  0.0000000E+00  0.1666667E-01
      1        -16.000811   1.000000
      2        -14.949039   1.000000
      3         -8.254097   1.000000
      4         -4.085901   1.000000
      5         -0.087012   0.000000
      6          5.725274   0.000000
      7          9.349302   0.000000
      8          9.497751   0.000000
 
  0.4736842E+00  0.5263158E+00  0.0000000E+00  0.1666667E-01
      1        -15.977438   1.000000
      2        -14.926068   1.000000
      3         -8.373455   1.000000
      4         -4.052781   1.000000
      5         -0.095472   0.000000
      6          5.887608   0.000000
      7          9.381489   0.000000
      8          9.532010   0.000000
 
  0.4649123E+00  0.5350877E+00  0.0000000E+00  0.1666667E-01
      1        -15.944698   1.000000
      2        -14.894081   1.000000
      3         -8.535410   1.000000
      4         -4.006434   1.000000
      5         -0.108228   0.000000
      6          6.109320   0.000000
      7          9.426342   0.000000
      8          9.579836   0.000000
 
  0.4561404E+00  0.5438596E+00  0.0000000E+00  0.1666667E-01
      1        -15.902617   1.000000
      2        -14.853280   1.000000
      3         -8.735466   1.000000
      4         -3.946884   1.000000
      5         -0.126208   0.000000
      6          6.385414   0.000000
      7          9.483745   0.000000
      8          9.641178   0.000000
 
  0.4473684E+00  0.5526316E+00  0.0000000E+00  0.1666667E-01
      1        -15.851195   1.000000
      2        -14.803933   1.000000
      3         -8.968600   1.000000
      4         -3.874161   1.000000
      5         -0.150603   0.000000
      6          6.710246   0.000000
      7          9.553431   0.000000
      8          9.715915   0.000000
 
  0.4385965E+00  0.5614035E+00  0.0000000E+00  0.1666667E-01
      1        -15.790415   1.000000
      2        -14.746406   1.000000
      3         -9.229550   1.000000
      4         -3.788300   1.000000
      5         -0.182816   0.000000
      6          7.077747   0.000000
      7          9.635036   0.000000
      8          9.803782   0.000000
 
  0.4298246E+00  0.5701754E+00  0.0000000E+00  0.1666667E-01
      1        -15.720324   1.000000
      2        -14.681246   1.000000
      3         -9.513045   1.000000
      4         -3.689347   1.000000
      5         -0.224477   0.000000
      6          7.481566   0.000000
      7          9.736892   0.000000
      8         10.048562   0.000000
 
  0.4210526E+00  0.5789474E+00  0.0000000E+00  0.1666667E-01
      1        -15.640920   1.000000
      2        -14.609194   1.000000
      3         -9.813996   1.000000
      4         -3.577353   1.000000
      5         -0.277371   0.000000
      6          7.914991   0.000000
      7          9.837091   0.000000
      8          9.929299   0.000000
 
  0.4122807E+00  0.5877193E+00  0.0000000E+00  0.1666667E-01
      1        -15.552239   1.000000
      2        -14.531263   1.000000
      3        -10.127323   1.000000
      4         -3.452377   1.000000
      5         -0.343402   0.000000
      6          8.371058   0.000000
      7          9.789286   0.000000
      8          9.947292   0.000000
 
  0.4035088E+00  0.5964912E+00  0.0000000E+00  0.1666667E-01
      1        -15.454248   1.000000
      2        -14.448982   1.000000
      3        -10.448046   1.000000
      4         -3.314488   1.000000
      5         -0.424470   0.000000
      6          8.841723   0.000000
      7          9.636148   0.000000
      8         10.070724   0.000000
 
  0.3947368E+00  0.6052632E+00  0.0000000E+00  0.1666667E-01
      1        -15.347001   1.000000
      2        -14.364582   1.000000
      3        -10.770788   1.000000
      4         -3.163766   1.000000
      5         -0.522388   0.000000
      6          9.317758   0.000000
      7          9.479102   0.000000
      8         10.200915   0.000000
 
  0.3859649E+00  0.6140351E+00  0.0000000E+00  0.1666667E-01
      1        -15.230494   1.000000
      2        -14.281452   1.000000
      3        -11.089541   1.000000
      4         -3.000294   1.000000
      5         -0.638761   0.000000
      6          9.327389   0.000000
      7          9.784292   0.000000
      8         10.339998   0.000000
 
  0.3771930E+00  0.6228070E+00  0.0000000E+00  0.1666667E-01
      1        -15.104751   1.000000
      2        -14.204933   1.000000
      3        -11.396592   1.000000
      4         -2.824172   1.000000
      5         -0.774833   0.000000
      6          9.189127   0.000000
      7         10.248690   0.000000
      8         10.501775   0.000000
 
  0.3684211E+00  0.6315789E+00  0.0000000E+00  0.1666667E-01
      1        -14.969846   1.000000
      2        -14.143468   1.000000
      3        -11.681702   1.000000
      4         -2.635510   1.000000
      5         -0.931365   0.000000
      6          9.070703   0.000000
      7         10.587907   0.000000
      8         10.634070   0.000000
 
  0.3596491E+00  0.6403509E+00  0.0000000E+00  0.1666667E-01
      1        -14.825758   1.000000
      2        -14.109905   1.000000
      3        -11.930370   1.000000
      4         -2.434430   1.000000
      5         -1.108591   0.000000
      6          8.976592   0.000000
      7         10.767355   0.000000
      8         10.848721   0.000000
 
  0.3508772E+00  0.6491228E+00  0.0000000E+00  0.1666667E-01
      1        -14.672531   1.000000
      2        -14.121614   1.000000
      3        -12.123858   1.000000
      4         -2.221068   1.000000
      5         -1.306169   0.000000
      6          8.909399   0.000000
      7         10.895431   0.000000
      8         11.020893   0.000000
 
  0.3421053E+00  0.6578947E+00  0.0000000E+00  0.1666667E-01
      1        -14.510232   1.000000
      2        -14.195703   1.000000
      3        -12.243898   1.000000
      4         -1.995573   1.000000
      5         -1.523150   0.000000
      6          8.869948   0.000000
      7         11.013086   0.000000
      8         11.120415   0.000000
 
  0.3333333E+00  0.6666667E+00  0.0000000E+00  0.1666667E-01
      1        -14.338888   1.000000
      2        -14.338872   1.000000
      3        -12.282845   1.000000
      4         -1.758127   0.500026
      5         -1.758122   0.499974
      6          8.857304   0.000000
      7         11.106194   0.000000
      8         11.116096   0.000000
 
  0.3333333E+00  0.6666667E+00  0.0000000E+00  0.1666667E-01
      1        -14.338888   1.000000
      2        -14.338872   1.000000
      3        -12.282845   1.000000
      4         -1.758127   0.500026
      5         -1.758122   0.499974
      6          8.857304   0.000000
      7         11.106194   0.000000
      8         11.116096   0.000000
 
  0.3157895E+00  0.6315789E+00  0.0000000E+00  0.1666667E-01
      1        -14.788901   1.000000
      2        -13.969232   1.000000
      3        -12.158196   1.000000
      4         -2.274445   1.000000
      5         -1.248067   0.000000
      6          8.899133   0.000000
      7         10.622087   0.000000
      8         11.228428   0.000000
 
  0.2982456E+00  0.5964912E+00  0.0000000E+00  0.1666667E-01
      1        -15.351187   1.000000
      2        -13.564133   1.000000
      3        -11.865963   1.000000
      4         -2.837934   1.000000
      5         -0.692649   0.000000
      6          8.980619   0.000000
      7          9.806144   0.000000
      8         11.225281   0.000000
 
  0.2807018E+00  0.5614035E+00  0.0000000E+00  0.1666667E-01
      1        -15.946276   1.000000
      2        -13.124300   1.000000
      3        -11.483209   1.000000
      4         -3.430449   1.000000
      5         -0.093973   0.000000
      6          8.925549   0.000000
      7          8.971173   0.000000
      8         10.988768   0.000000
 
  0.2631579E+00  0.5263158E+00  0.0000000E+00  0.1666667E-01
      1        -16.539081   1.000000
      2        -12.650553   1.000000
      3        -11.044059   1.000000
      4         -4.035288   1.000000
      5          0.545304   0.000000
      6          8.057697   0.000000
      7          8.678645   0.000000
      8         10.111750   0.000000
 
  0.2456140E+00  0.4912281E+00  0.0000000E+00  0.1666667E-01
      1        -17.113345   1.000000
      2        -12.143994   1.000000
      3        -10.565146   1.000000
      4         -4.638279   1.000000
      5          1.222016   0.000000
      6          7.227506   0.000000
      7          8.115257   0.000000
      8          9.273727   0.000000
 
  0.2280702E+00  0.4561404E+00  0.0000000E+00  0.1666667E-01
      1        -17.660614   1.000000
      2        -11.606114   1.000000
      3        -10.056644   1.000000
      4         -5.227959   1.000000
      5          1.932127   0.000000
      6          6.445041   0.000000
      7          7.450600   0.000000
      8          8.482134   0.000000
 
  0.2105263E+00  0.4210526E+00  0.0000000E+00  0.1666667E-01
      1        -18.175846   1.000000
      2        -11.038932   1.000000
      3         -9.526439   1.000000
      4         -5.795283   1.000000
      5          2.670692   0.000000
      6          5.715106   0.000000
      7          6.778905   0.000000
      8          7.743896   0.000000
 
  0.1929825E+00  0.3859649E+00  0.0000000E+00  0.1666667E-01
      1        -18.655913   1.000000
      2        -10.444912   1.000000
      3         -8.981892   1.000000
      4         -6.333207   1.000000
      5          3.431639   0.000000
      6          5.040262   0.000000
      7          6.135987   0.000000
      8          7.062044   0.000000
 
  0.1754386E+00  0.3508772E+00  0.0000000E+00  0.1666667E-01
      1        -19.098557   1.000000
      2         -9.827503   1.000000
      3         -8.430622   1.000000
      4         -6.836269   1.000000
      5          4.207295   0.000000
      6          4.422027   0.000000
      7          5.536482   0.000000
      8          6.437977   0.000000
 
  0.1578947E+00  0.3157895E+00  0.0000000E+00  0.1666667E-01
      1        -19.502149   1.000000
      2         -9.191318   1.000000
      3         -7.880994   1.000000
      4         -7.300229   1.000000
      5          3.861347   0.000000
      6          4.987227   0.000000
      7          4.988385   0.000000
      8          5.872479   0.000000
 
  0.1403509E+00  0.2807018E+00  0.0000000E+00  0.1666667E-01
      1        -19.865474   1.000000
      2         -8.542511   1.000000
      3         -7.721796   1.000000
      4         -7.342356   1.000000
      5          3.358843   0.000000
      6          4.491795   0.000000
      7          5.366016   0.000000
      8          5.763287   0.000000
 
  0.1228070E+00  0.2456140E+00  0.0000000E+00  0.1666667E-01
      1        -20.187691   1.000000
      2         -8.098410   1.000000
      3         -7.889594   1.000000
      4         -6.825166   1.000000
      5          2.914940   0.000000
      6          4.052235   0.000000
      7          4.918906   0.000000
      8          6.517713   0.000000
 
  0.1052632E+00  0.2105263E+00  0.0000000E+00  0.1666667E-01
      1        -20.468109   1.000000
      2         -8.428081   1.000000
      3         -7.244055   1.000000
      4         -6.340902   1.000000
      5          2.529929   0.000000
      6          3.669798   0.000000
      7          4.531335   0.000000
      8          7.145188   0.000000
 
  0.8771930E-01  0.1754386E+00  0.0000000E+00  0.1666667E-01
      1        -20.706187   1.000000
      2         -8.709265   1.000000
      3         -6.621662   1.000000
      4         -5.901821   1.000000
      5          2.204008   0.000000
      6          3.345288   0.000000
      7          4.203416   0.000000
      8          6.942924   0.000000
 
  0.7017544E-01  0.1403509E+00  0.0000000E+00  0.1666667E-01
      1        -20.901474   1.000000
      2         -8.940762   1.000000
      3         -6.043637   1.000000
      4         -5.520441   1.000000
      5          1.937300   0.000000
      6          3.079239   0.000000
      7          3.935190   0.000000
      8          6.787524   0.000000
 
  0.5263158E-01  0.1052632E+00  0.0000000E+00  0.1666667E-01
      1        -21.053654   1.000000
      2         -9.121680   1.000000
      3         -5.537635   1.000000
      4         -5.208824   1.000000
      5          1.729867   0.000000
      6          2.872009   0.000000
      7          3.726649   0.000000
      8          6.675261   0.000000
 
  0.3508772E-01  0.7017544E-01  0.0000000E+00  0.1666667E-01
      1        -21.162491   1.000000
      2         -9.251340   1.000000
      3         -5.137163   1.000000
      4         -4.977656   1.000000
      5          1.581724   0.000000
      6          2.723840   0.000000
      7          3.577754   0.000000
      8          6.601151   0.000000
 
  0.1754386E-01  0.3508772E-01  0.0000000E+00  0.1666667E-01
      1        -21.227874   1.000000
      2         -9.329318   1.000000
      3         -4.877561   1.000000
      4         -4.835356   1.000000
      5          1.492854   0.000000
      6          2.634876   0.000000
      7          3.488448   0.000000
      8          6.560165   0.000000
 
  0.0000000E+00  0.0000000E+00  0.0000000E+00  0.1666667E-01
      1        -21.249658   1.000000
      2         -9.355333   1.000000
      3         -4.787314   1.000000
      4         -4.787303   1.000000
      5          1.463234   0.000000
      6          2.605212   0.000000
      7          3.458685   0.000000
      8          6.546365   0.000000
