       N       E                     dE             d eps       ncg     rms          rms(c)
DAV:   1    -0.165722726552E+02   -0.16572E+02   -0.50856E+02  1096   0.124E+02
DAV:   2    -0.172936690449E+02   -0.72140E+00   -0.72009E+00  1328   0.233E+01
DAV:   3    -0.172968225271E+02   -0.31535E-02   -0.31535E-02  1440   0.148E+00
DAV:   4    -0.172968326135E+02   -0.10086E-04   -0.10087E-04  1488   0.655E-02
DAV:   5    -0.172968327029E+02   -0.89405E-07   -0.89356E-07  1416   0.358E-03
   1 F= -.17296833E+02 E0= -.17295892E+02  d E =-.188063E-02
