 vasp.6.3.0 20Jan22 (build Jan 26 2022 20:51:09) complex                        
  
 executed on             LinuxIFC date 2023.07.15  22:52:21
 running on   30 total cores
 distrk:  each k-point on   30 cores,    1 groups
 distr:  one band on NCORE=  15 cores,    2 groups


--------------------------------------------------------------------------------------------------------


 INCAR:
   ISTART = 1            (Read existing wavefunction
   ICHARG = 11
   ISPIN = 1            (Non-Spin polarised DFT)
   LREAL = .FALSE.       (Projection operators: automatic)
   ENCUT = 520        (Cut-off energy for plane wave basis set, in eV)
   PREC = A       (Precision level)
   LWAVE = F        (Write WAVECAR or not)
   LCHARG = F        (Write CHGCAR or not)
   ADDGRID = F        (Increase grid
   ISMEAR = 0            (Gaussian smearing
   SIGMA = 0.05         (Smearing value in eV
   NELM = 200
   EDIFF = 1E-6        (SCF energy convergence
   NSW = 0          (Max ionic steps)
   IBRION = -1            (Algorithm: 0-MD
   ISIF = 3           (Stress/relaxation: 2-Ions, 3-Shape/Ions/V, 4-Shape/Ions)
   EDIFFG = -1E-05        (Ionic convergence
   NCORE = 15

 POTCAR:    PAW_PBE C 08Apr2002                   
 -----------------------------------------------------------------------------
|                                                                             |
|           W    W    AA    RRRRR   N    N  II  N    N   GGGG   !!!           |
|           W    W   A  A   R    R  NN   N  II  NN   N  G    G  !!!           |
|           W    W  A    A  R    R  N N  N  II  N N  N  G       !!!           |
|           W WW W  AAAAAA  RRRRR   N  N N  II  N  N N  G  GGG   !            |
|           WW  WW  A    A  R   R   N   NN  II  N   NN  G    G                |
|           W    W  A    A  R    R  N    N  II  N    N   GGGG   !!!           |
|                                                                             |
|     For optimal performance we recommend to set                             |
|       NCORE = 2 up to number-of-cores-per-socket                            |
|     NCORE specifies how many cores store one orbital (NPAR=cpu/NCORE).      |
|     This setting can greatly improve the performance of VASP for DFT.       |
|     The default, NCORE=1 might be grossly inefficient on modern             |
|     multi-core architectures or massively parallel machines. Do your        |
|     own testing! More info at https://www.vasp.at/wiki/index.php/NCORE      |
|     Unfortunately you need to use the default for GW and RPA                |
|     calculations (for HF NCORE is supported but not extensively tested      |
|     yet).                                                                   |
|                                                                             |
 -----------------------------------------------------------------------------

 POTCAR:    PAW_PBE C 08Apr2002                   
   VRHFIN =C: s2p2                                                                                  
   LEXCH  = PE                                                                                      
   EATOM  =   147.1560 eV,   10.8157 Ry                                                             
                                                                                                    
   TITEL  = PAW_PBE C 08Apr2002                                                                     
   LULTRA =        F    use ultrasoft PP ?                                                          
   IUNSCR =        1    unscreen: 0-lin 1-nonlin 2-no                                               
   RPACOR =    1.200    partial core radius                                                         
   POMASS =   12.011; ZVAL   =    4.000    mass and valenz                                          
   RCORE  =    1.500    outmost cutoff radius                                                       
   RWIGS  =    1.630; RWIGS  =    0.863    wigner-seitz radius (au A)                               
   ENMAX  =  400.000; ENMIN  =  300.000 eV                                                          
   ICORE  =        2    local potential                                                             
   LCOR   =        T    correct aug charges                                                         
   LPAW   =        T    paw PP                                                                      
   EAUG   =  644.873                                                                                
   DEXC   =    0.000                                                                                
   RMAX   =    1.529    core radius for proj-oper                                                   
   RAUG   =    1.300    factor for augmentation sphere                                              
   RDEP   =    1.501    radius for radial grids                                                     
   RDEPT  =    1.300    core radius for aug-charge                                                  
                                                                                                    
   Atomic configuration                                                                             
    4 entries                                                                                       
     n  l   j            E        occ.                                                              
     1  0  0.50      -273.3789   2.0000                                                             
     2  0  0.50       -13.7508   2.0000                                                             
     2  1  0.50        -5.2854   2.0000                                                             
     3  2  1.50        -5.4423   0.0000                                                             
   Description                                                                                      
     l       E           TYP  RCUT    TYP  RCUT                                                     
     0    -13.7508458     23  1.200                                                                 
     0     -8.2022199     23  1.200                                                                 
     1     -5.2854383     23  1.500                                                                 
     1     34.0145650     23  1.500                                                                 
     2     -5.4423304      7  1.500                                                                 
  local pseudopotential read in
  partial core-charges read in
  partial kinetic energy density read in
  atomic valenz-charges read in
  non local Contribution for L=           0  read in
    real space projection operators read in
  non local Contribution for L=           0  read in
    real space projection operators read in
  non local Contribution for L=           1  read in
    real space projection operators read in
  non local Contribution for L=           1  read in
    real space projection operators read in
    PAW grid and wavefunctions read in
 
   number of l-projection  operators is LMAX  =           4
   number of lm-projection operators is LMMAX =           8
 
  PAW_PBE C 08Apr2002                   :
 energy of atom  1       EATOM= -147.1560
 kinetic energy error for atom=    0.0071 (will be added to EATOM!!)
 
 
 POSCAR: C4
  positions in direct lattice
  velocities in cartesian coordinates
 exchange correlation table for  LEXCH =        8
   RHO(1)=    0.500       N(1)  =     2000
   RHO(2)=  100.500       N(2)  =     4000
 


--------------------------------------------------------------------------------------------------------


 ion  position               nearest neighbor table
   1  0.000  0.000  0.500-   2 1.42   2 1.42   2 1.42
   2  0.333  0.333  0.500-   1 1.42   1 1.42   1 1.42
 
  LATTYP: Found a hexagonal cell.
 ALAT       =     2.4681332416
 C/A-ratio  =     4.8619741422
  
  Lattice vectors:
  
 A1 = (  -1.2340666208,  -2.1374660871,   0.0000000000)
 A2 = (   2.4681332416,   0.0000000000,   0.0000000000)
 A3 = (   0.0000000000,   0.0000000000,  12.0000000000)


Analysis of symmetry for initial positions (statically):
=====================================================================
 Subroutine PRICEL returns:
 Original cell was already a primitive cell.
 

 Routine SETGRP: Setting up the symmetry group for a 
 hexagonal supercell.


 Subroutine GETGRP returns: Found 24 space group operations
 (whereof 12 operations were pure point group operations)
 out of a pool of 24 trial point group operations.


The static configuration has the point symmetry D_3h.
 The point group associated with its full space group is D_6h.


Analysis of symmetry for dynamics (positions and initial velocities):
=====================================================================
 Subroutine PRICEL returns:
 Original cell was already a primitive cell.
 

 Routine SETGRP: Setting up the symmetry group for a 
 hexagonal supercell.


 Subroutine GETGRP returns: Found 24 space group operations
 (whereof 12 operations were pure point group operations)
 out of a pool of 24 trial point group operations.


The dynamic configuration has the point symmetry D_3h.
 The point group associated with its full space group is D_6h.


 Subroutine INISYM returns: Found 24 space group operations
 (whereof 12 operations are pure point group operations),
 and found     1 'primitive' translations


----------------------------------------------------------------------------------------

                                     Primitive cell                                     

  volume of cell :      63.3066

  direct lattice vectors                    reciprocal lattice vectors
     2.468133242  0.000000000  0.000000000     0.405164512 -0.233921840  0.000000000
     1.234066621  2.137466087  0.000000000     0.000000000  0.467843680  0.000000000
     0.000000000  0.000000000 12.000000000     0.000000000  0.000000000  0.083333333

  length of vectors
     2.468133242  2.468133242 12.000000000     0.467843680  0.467843680  0.083333333

  position of ions in fractional coordinates (direct lattice)
     0.000000000  0.000000000  0.500000000
     0.333333343  0.333333343  0.500000000

  ion indices of the primitive-cell ions
   primitive index   ion index
                 1           1
                 2           2

----------------------------------------------------------------------------------------

 
 
 KPOINTS: K-Path Generated by VASPKIT.            

Interpolating k-points between supplied coordinates.

 Line segments in fractional coordinates (reciprocal lattice):
    0.000000  0.000000  0.000000  ...  0.500000  0.500000  0.000000
    0.500000  0.500000  0.000000  ...  0.333333  0.666667  0.000000
    0.333333  0.666667  0.000000  ...  0.000000  0.000000  0.000000

 Generated    20 points on each line segment, for a total of     60 k-points:

 Following reciprocal coordinates:
            Coordinates               Weight
  0.000000  0.000000  0.000000      0.016667
  0.026316  0.026316  0.000000      0.016667
  0.052632  0.052632  0.000000      0.016667
  0.078947  0.078947  0.000000      0.016667
  0.105263  0.105263  0.000000      0.016667
  0.131579  0.131579  0.000000      0.016667
  0.157895  0.157895  0.000000      0.016667
  0.184211  0.184211  0.000000      0.016667
  0.210526  0.210526  0.000000      0.016667
  0.236842  0.236842  0.000000      0.016667
  0.263158  0.263158  0.000000      0.016667
  0.289474  0.289474  0.000000      0.016667
  0.315789  0.315789  0.000000      0.016667
  0.342105  0.342105  0.000000      0.016667
  0.368421  0.368421  0.000000      0.016667
  0.394737  0.394737  0.000000      0.016667
  0.421053  0.421053  0.000000      0.016667
  0.447368  0.447368  0.000000      0.016667
  0.473684  0.473684  0.000000      0.016667
  0.500000  0.500000  0.000000      0.016667
  0.500000  0.500000  0.000000      0.016667
  0.491228  0.508772  0.000000      0.016667
  0.482456  0.517544  0.000000      0.016667
  0.473684  0.526316  0.000000      0.016667
  0.464912  0.535088  0.000000      0.016667
  0.456140  0.543860  0.000000      0.016667
  0.447368  0.552632  0.000000      0.016667
  0.438596  0.561404  0.000000      0.016667
  0.429825  0.570175  0.000000      0.016667
  0.421053  0.578947  0.000000      0.016667
  0.412281  0.587719  0.000000      0.016667
  0.403509  0.596491  0.000000      0.016667
  0.394737  0.605263  0.000000      0.016667
  0.385965  0.614035  0.000000      0.016667
  0.377193  0.622807  0.000000      0.016667
  0.368421  0.631579  0.000000      0.016667
  0.359649  0.640351  0.000000      0.016667
  0.350877  0.649123  0.000000      0.016667
  0.342105  0.657895  0.000000      0.016667
  0.333333  0.666667  0.000000      0.016667
  0.333333  0.666667  0.000000      0.016667
  0.315789  0.631579  0.000000      0.016667
  0.298246  0.596491  0.000000      0.016667
  0.280702  0.561404  0.000000      0.016667
  0.263158  0.526316  0.000000      0.016667
  0.245614  0.491228  0.000000      0.016667
  0.228070  0.456140  0.000000      0.016667
  0.210526  0.421053  0.000000      0.016667
  0.192982  0.385965  0.000000      0.016667
  0.175439  0.350877  0.000000      0.016667
  0.157895  0.315789  0.000000      0.016667
  0.140351  0.280702  0.000000      0.016667
  0.122807  0.245614  0.000000      0.016667
  0.105263  0.210526  0.000000      0.016667
  0.087719  0.175439  0.000000      0.016667
  0.070175  0.140351  0.000000      0.016667
  0.052632  0.105263  0.000000      0.016667
  0.035088  0.070175  0.000000      0.016667
  0.017544  0.035088  0.000000      0.016667
  0.000000  0.000000  0.000000      0.016667

 Following cartesian coordinates:
            Coordinates               Weight
  0.000000  0.000000  0.000000      0.016667
  0.010662  0.006156  0.000000      0.016667
  0.021324  0.012312  0.000000      0.016667
  0.031987  0.018468  0.000000      0.016667
  0.042649  0.024623  0.000000      0.016667
  0.053311  0.030779  0.000000      0.016667
  0.063973  0.036935  0.000000      0.016667
  0.074636  0.043091  0.000000      0.016667
  0.085298  0.049247  0.000000      0.016667
  0.095960  0.055403  0.000000      0.016667
  0.106622  0.061558  0.000000      0.016667
  0.117284  0.067714  0.000000      0.016667
  0.127947  0.073870  0.000000      0.016667
  0.138609  0.080026  0.000000      0.016667
  0.149271  0.086182  0.000000      0.016667
  0.159933  0.092338  0.000000      0.016667
  0.170596  0.098493  0.000000      0.016667
  0.181258  0.104649  0.000000      0.016667
  0.191920  0.110805  0.000000      0.016667
  0.202582  0.116961  0.000000      0.016667
  0.202582  0.116961  0.000000      0.016667
  0.199028  0.123117  0.000000      0.016667
  0.195474  0.129273  0.000000      0.016667
  0.191920  0.135428  0.000000      0.016667
  0.188366  0.141584  0.000000      0.016667
  0.184812  0.147740  0.000000      0.016667
  0.181258  0.153896  0.000000      0.016667
  0.177704  0.160052  0.000000      0.016667
  0.174150  0.166208  0.000000      0.016667
  0.170596  0.172363  0.000000      0.016667
  0.167042  0.178519  0.000000      0.016667
  0.163487  0.184675  0.000000      0.016667
  0.159933  0.190831  0.000000      0.016667
  0.156379  0.196987  0.000000      0.016667
  0.152825  0.203143  0.000000      0.016667
  0.149271  0.209298  0.000000      0.016667
  0.145717  0.215454  0.000000      0.016667
  0.142163  0.221610  0.000000      0.016667
  0.138609  0.227766  0.000000      0.016667
  0.135055  0.233922  0.000000      0.016667
  0.135055  0.233922  0.000000      0.016667
  0.127947  0.221610  0.000000      0.016667
  0.120839  0.209298  0.000000      0.016667
  0.113730  0.196987  0.000000      0.016667
  0.106622  0.184675  0.000000      0.016667
  0.099514  0.172363  0.000000      0.016667
  0.092406  0.160052  0.000000      0.016667
  0.085298  0.147740  0.000000      0.016667
  0.078190  0.135428  0.000000      0.016667
  0.071081  0.123117  0.000000      0.016667
  0.063973  0.110805  0.000000      0.016667
  0.056865  0.098493  0.000000      0.016667
  0.049757  0.086182  0.000000      0.016667
  0.042649  0.073870  0.000000      0.016667
  0.035541  0.061558  0.000000      0.016667
  0.028433  0.049247  0.000000      0.016667
  0.021324  0.036935  0.000000      0.016667
  0.014216  0.024623  0.000000      0.016667
  0.007108  0.012312  0.000000      0.016667
  0.000000  0.000000  0.000000      0.016667
 


--------------------------------------------------------------------------------------------------------




 Dimension of arrays:
   k-points           NKPTS =     60   k-points in BZ     NKDIM =     60   number of bands    NBANDS=      8
   number of dos      NEDOS =    301   number of ions     NIONS =      2
   non local maximal  LDIM  =      4   non local SUM 2l+1 LMDIM =      8
   total plane-waves  NPLWV =  29160
   max r-space proj   IRMAX =      1   max aug-charges    IRDMAX=   5635
   dimension x,y,z NGX =    18 NGY =   18 NGZ =   90
   dimension x,y,z NGXF=    36 NGYF=   36 NGZF=  180
   support grid    NGXF=    36 NGYF=   36 NGZF=  180
   ions per type =               2
   NGX,Y,Z   is equivalent  to a cutoff of  12.12, 12.12, 12.47 a.u.
   NGXF,Y,Z  is equivalent  to a cutoff of  24.25, 24.25, 24.94 a.u.

 SYSTEM =  unknown system                          
 POSCAR =  C4                                      

 Startparameter for this run:
   NWRITE =      2    write-flag & timer
   PREC   = a         normal or accurate (medium, high low for compatibility)
   ISTART =      1    job   : 0-new  1-cont  2-samecut
   ICHARG =     11    charge: 1-file 2-atom 10-const
   ISPIN  =      1    spin polarized calculation?
   LNONCOLLINEAR =      F non collinear calculations
   LSORBIT =      F    spin-orbit coupling
   INIWAV =      1    electr: 0-lowe 1-rand  2-diag
   LASPH  =      F    aspherical Exc in radial PAW
 Electronic Relaxation 1
   ENCUT  =  520.0 eV  38.22 Ry    6.18 a.u.   4.59  4.59 22.31*2*pi/ulx,y,z
   ENINI  =  520.0     initial cutoff
   ENAUG  =  644.9 eV  augmentation charge cutoff
   NELM   =    200;   NELMIN=  2; NELMDL=  0     # of ELM steps 
   EDIFF  = 0.1E-05   stopping-criterion for ELM
   LREAL  =      F    real-space projection
   NLSPLINE    = F    spline interpolate recip. space projectors
   LCOMPAT=      F    compatible to vasp.4.4
   GGA_COMPAT  = T    GGA compatible to vasp.4.4-vasp.4.6
   LMAXPAW     = -100 max onsite density
   LMAXMIX     =    2 max onsite mixed and CHGCAR
   VOSKOWN=      0    Vosko Wilk Nusair interpolation
   ROPT   =    0.00000
 Ionic relaxation
   EDIFFG = -.1E-04   stopping-criterion for IOM
   NSW    =      0    number of steps for IOM
   NBLOCK =      1;   KBLOCK =      1    inner block; outer block 
   IBRION =     -1    ionic relax: 0-MD 1-quasi-New 2-CG
   NFREE  =      0    steps in history (QN), initial steepest desc. (CG)
   ISIF   =      3    stress and relaxation
   IWAVPR =     10    prediction:  0-non 1-charg 2-wave 3-comb
   ISYM   =      2    0-nonsym 1-usesym 2-fastsym
   LCORR  =      T    Harris-Foulkes like correction to forces

   POTIM  = 0.5000    time-step for ionic-motion
   TEIN   =    0.0    initial temperature
   TEBEG  =    0.0;   TEEND  =   0.0 temperature during run
   SMASS  =  -3.00    Nose mass-parameter (am)
   estimated Nose-frequenzy (Omega)   =  0.10E-29 period in steps = 0.13E+47 mass=  -0.139E-27a.u.
   SCALEE = 1.0000    scale energy and forces
   NPACO  =    256;   APACO  = 10.0  distance and # of slots for P.C.
   PSTRESS=    0.0 pullay stress

  Mass of Ions in am
   POMASS =  12.01
  Ionic Valenz
   ZVAL   =   4.00
  Atomic Wigner-Seitz radii
   RWIGS  =  -1.00
  virtual crystal weights 
   VCA    =   1.00
   NELECT =       8.0000    total number of electrons
   NUPDOWN=      -1.0000    fix difference up-down

 DOS related values:
   EMIN   =  10.00;   EMAX   =-10.00  energy-range for DOS
   EFERMI =   0.00
   ISMEAR =     0;   SIGMA  =   0.05  broadening in eV -4-tet -1-fermi 0-gaus

 Electronic relaxation 2 (details)
   IALGO  =     38    algorithm
   LDIAG  =      T    sub-space diagonalisation (order eigenvalues)
   LSUBROT=      F    optimize rotation matrix (better conditioning)
   TURBO    =      0    0=normal 1=particle mesh
   IRESTART =      0    0=no restart 2=restart with 2 vectors
   NREBOOT  =      0    no. of reboots
   NMIN     =      0    reboot dimension
   EREF     =   0.00    reference energy to select bands
   IMIX   =      4    mixing-type and parameters
     AMIX     =   0.40;   BMIX     =  1.00
     AMIX_MAG =   1.60;   BMIX_MAG =  1.00
     AMIN     =   0.10
     WC   =   100.;   INIMIX=   1;  MIXPRE=   1;  MAXMIX= -45

 Intra band minimization:
   WEIMIN = 0.0000     energy-eigenvalue tresh-hold
   EBREAK =  0.31E-07  absolut break condition
   DEPER  =   0.30     relativ break condition  

   TIME   =   0.40     timestep for ELM

  volume/ion in A,a.u.               =      31.65       213.61
  Fermi-wavevector in a.u.,A,eV,Ry     =   0.821527  1.552461  9.182660  0.674906
  Thomas-Fermi vector in A             =   1.932702
 
 Write flags
   LWAVE        =      F    write WAVECAR
   LDOWNSAMPLE  =      F    k-point downsampling of WAVECAR
   LCHARG       =      F    write CHGCAR
   LVTOT        =      F    write LOCPOT, total local potential
   LVHAR        =      F    write LOCPOT, Hartree potential only
   LELF         =      F    write electronic localiz. function (ELF)
   LORBIT       =      0    0 simple, 1 ext, 2 COOP (PROOUT), +10 PAW based schemes


 Dipole corrections
   LMONO  =      F    monopole corrections only (constant potential shift)
   LDIPOL =      F    correct potential (dipole corrections)
   IDIPOL =      0    1-x, 2-y, 3-z, 4-all directions 
   EPSILON=  1.0000000 bulk dielectric constant

 Exchange correlation treatment:
   GGA     =    --    GGA type
   LEXCH   =     8    internal setting for exchange type
   LIBXC   =     F    Libxc                    
   VOSKOWN =     0    Vosko Wilk Nusair interpolation
   LHFCALC =     F    Hartree Fock is set to
   LHFONE  =     F    Hartree Fock one center treatment
   AEXX    =    0.0000 exact exchange contribution

 Linear response parameters
   LEPSILON=     F    determine dielectric tensor
   LRPA    =     F    only Hartree local field effects (RPA)
   LNABLA  =     F    use nabla operator in PAW spheres
   LVEL    =     F    velocity operator in full k-point grid
   CSHIFT  =0.1000    complex shift for real part using Kramers Kronig
   OMEGAMAX=  -1.0    maximum frequency
   DEG_THRESHOLD= 0.2000000E-02 threshold for treating states as degnerate
   RTIME   =   -0.100 relaxation time in fs
  (WPLASMAI=    0.000 imaginary part of plasma frequency in eV, 0.658/RTIME)
   DFIELD  = 0.0000000 0.0000000 0.0000000 field for delta impulse in time
 
  Optional k-point grid parameters
   LKPOINTS_OPT  =     F    use optional k-point grid
   KPOINTS_OPT_MODE=     1    mode for optional k-point grid
 
 Orbital magnetization related:
   ORBITALMAG=     F  switch on orbital magnetization
   LCHIMAG   =     F  perturbation theory with respect to B field
   DQ        =  0.001000  dq finite difference perturbation B field
   LLRAUG    =     F  two centre corrections for induced B field



--------------------------------------------------------------------------------------------------------


 Static calculation
 charge density and potential remain constant during run
 non-spin polarized calculation
 Variant of blocked Davidson
 Davidson routine will perform the subspace rotation
 perform sub-space diagonalisation
    after iterative eigenvector-optimisation
 no mixing
 using additional bands            4
 reciprocal scheme for non local part
 use partial core corrections
 calculate Harris-corrections to forces 
   (improved forces if not selfconsistent)
 use gradient corrections 
 WARNING: stress and forces are not correct
  (second derivative of E(xc) not defined)
 use of overlap-Matrix (Vanderbilt PP)
 Gauss-broadening in eV      SIGMA  =   0.05


--------------------------------------------------------------------------------------------------------


  energy-cutoff  :      520.00
  volume of cell :       63.31
      direct lattice vectors                 reciprocal lattice vectors
     2.468133242  0.000000000  0.000000000     0.405164512 -0.233921840  0.000000000
     1.234066621  2.137466087  0.000000000     0.000000000  0.467843680  0.000000000
     0.000000000  0.000000000 12.000000000     0.000000000  0.000000000  0.083333333

  length of vectors
     2.468133242  2.468133242 12.000000000     0.467843680  0.467843680  0.083333333


 
 old parameters found on file WAVECAR:
  energy-cutoff  :      520.00
  volume of cell :       63.31
      direct lattice vectors                 reciprocal lattice vectors
     2.468133242  0.000000000  0.000000000     0.405164512 -0.233921840  0.000000000
     1.234066621  2.137466087  0.000000000     0.000000000  0.467843680  0.000000000
     0.000000000  0.000000000 12.000000000     0.000000000  0.000000000  0.083333333

  length of vectors

 
 k-points in units of 2pi/SCALE and weight: K-Path Generated by VASPKIT.            
   0.00000000  0.00000000  0.00000000       0.017
   0.01066222  0.00615584  0.00000000       0.017
   0.02132445  0.01231168  0.00000000       0.017
   0.03198667  0.01846751  0.00000000       0.017
   0.04264890  0.02462335  0.00000000       0.017
   0.05331112  0.03077919  0.00000000       0.017
   0.06397334  0.03693503  0.00000000       0.017
   0.07463557  0.04309087  0.00000000       0.017
   0.08529779  0.04924670  0.00000000       0.017
   0.09596002  0.05540254  0.00000000       0.017
   0.10662224  0.06155838  0.00000000       0.017
   0.11728446  0.06771422  0.00000000       0.017
   0.12794669  0.07387005  0.00000000       0.017
   0.13860891  0.08002589  0.00000000       0.017
   0.14927114  0.08618173  0.00000000       0.017
   0.15993336  0.09233757  0.00000000       0.017
   0.17059558  0.09849341  0.00000000       0.017
   0.18125781  0.10464924  0.00000000       0.017
   0.19192003  0.11080508  0.00000000       0.017
   0.20258226  0.11696092  0.00000000       0.017
   0.20258226  0.11696092  0.00000000       0.017
   0.19902818  0.12311676  0.00000000       0.017
   0.19547411  0.12927260  0.00000000       0.017
   0.19192003  0.13542843  0.00000000       0.017
   0.18836596  0.14158427  0.00000000       0.017
   0.18481188  0.14774011  0.00000000       0.017
   0.18125781  0.15389595  0.00000000       0.017
   0.17770373  0.16005179  0.00000000       0.017
   0.17414966  0.16620762  0.00000000       0.017
   0.17059558  0.17236346  0.00000000       0.017
   0.16704151  0.17851930  0.00000000       0.017
   0.16348743  0.18467514  0.00000000       0.017
   0.15993336  0.19083097  0.00000000       0.017
   0.15637929  0.19698681  0.00000000       0.017
   0.15282521  0.20314265  0.00000000       0.017
   0.14927114  0.20929849  0.00000000       0.017
   0.14571706  0.21545433  0.00000000       0.017
   0.14216299  0.22161016  0.00000000       0.017
   0.13860891  0.22776600  0.00000000       0.017
   0.13505484  0.23392184  0.00000000       0.017
   0.13505484  0.23392184  0.00000000       0.017
   0.12794669  0.22161016  0.00000000       0.017
   0.12083854  0.20929849  0.00000000       0.017
   0.11373039  0.19698681  0.00000000       0.017
   0.10662224  0.18467514  0.00000000       0.017
   0.09951409  0.17236346  0.00000000       0.017
   0.09240594  0.16005179  0.00000000       0.017
   0.08529779  0.14774011  0.00000000       0.017
   0.07818964  0.13542843  0.00000000       0.017
   0.07108149  0.12311676  0.00000000       0.017
   0.06397334  0.11080508  0.00000000       0.017
   0.05686519  0.09849341  0.00000000       0.017
   0.04975705  0.08618173  0.00000000       0.017
   0.04264890  0.07387005  0.00000000       0.017
   0.03554075  0.06155838  0.00000000       0.017
   0.02843260  0.04924670  0.00000000       0.017
   0.02132445  0.03693503  0.00000000       0.017
   0.01421630  0.02462335  0.00000000       0.017
   0.00710815  0.01231168  0.00000000       0.017
   0.00000000  0.00000000  0.00000000       0.017
 
 k-points in reciprocal lattice and weights: K-Path Generated by VASPKIT.            
   0.00000000  0.00000000  0.00000000       0.017
   0.02631579  0.02631579  0.00000000       0.017
   0.05263158  0.05263158  0.00000000       0.017
   0.07894737  0.07894737  0.00000000       0.017
   0.10526316  0.10526316  0.00000000       0.017
   0.13157895  0.13157895  0.00000000       0.017
   0.15789474  0.15789474  0.00000000       0.017
   0.18421053  0.18421053  0.00000000       0.017
   0.21052632  0.21052632  0.00000000       0.017
   0.23684211  0.23684211  0.00000000       0.017
   0.26315789  0.26315789  0.00000000       0.017
   0.28947368  0.28947368  0.00000000       0.017
   0.31578947  0.31578947  0.00000000       0.017
   0.34210526  0.34210526  0.00000000       0.017
   0.36842105  0.36842105  0.00000000       0.017
   0.39473684  0.39473684  0.00000000       0.017
   0.42105263  0.42105263  0.00000000       0.017
   0.44736842  0.44736842  0.00000000       0.017
   0.47368421  0.47368421  0.00000000       0.017
   0.50000000  0.50000000  0.00000000       0.017
   0.50000000  0.50000000  0.00000000       0.017
   0.49122807  0.50877193  0.00000000       0.017
   0.48245614  0.51754386  0.00000000       0.017
   0.47368421  0.52631579  0.00000000       0.017
   0.46491228  0.53508772  0.00000000       0.017
   0.45614035  0.54385965  0.00000000       0.017
   0.44736842  0.55263158  0.00000000       0.017
   0.43859649  0.56140351  0.00000000       0.017
   0.42982456  0.57017544  0.00000000       0.017
   0.42105263  0.57894737  0.00000000       0.017
   0.41228070  0.58771930  0.00000000       0.017
   0.40350877  0.59649123  0.00000000       0.017
   0.39473684  0.60526316  0.00000000       0.017
   0.38596491  0.61403509  0.00000000       0.017
   0.37719298  0.62280702  0.00000000       0.017
   0.36842105  0.63157895  0.00000000       0.017
   0.35964912  0.64035088  0.00000000       0.017
   0.35087719  0.64912281  0.00000000       0.017
   0.34210526  0.65789474  0.00000000       0.017
   0.33333333  0.66666667  0.00000000       0.017
   0.33333333  0.66666667  0.00000000       0.017
   0.31578947  0.63157895  0.00000000       0.017
   0.29824561  0.59649123  0.00000000       0.017
   0.28070175  0.56140351  0.00000000       0.017
   0.26315789  0.52631579  0.00000000       0.017
   0.24561404  0.49122807  0.00000000       0.017
   0.22807018  0.45614035  0.00000000       0.017
   0.21052632  0.42105263  0.00000000       0.017
   0.19298246  0.38596491  0.00000000       0.017
   0.17543860  0.35087719  0.00000000       0.017
   0.15789474  0.31578947  0.00000000       0.017
   0.14035088  0.28070175  0.00000000       0.017
   0.12280702  0.24561404  0.00000000       0.017
   0.10526316  0.21052632  0.00000000       0.017
   0.08771930  0.17543860  0.00000000       0.017
   0.07017544  0.14035088  0.00000000       0.017
   0.05263158  0.10526316  0.00000000       0.017
   0.03508772  0.07017544  0.00000000       0.017
   0.01754386  0.03508772  0.00000000       0.017
   0.00000000  0.00000000  0.00000000       0.017
 
 position of ions in fractional coordinates (direct lattice) 
   0.00000000  0.00000000  0.50000000
   0.33333334  0.33333334  0.50000000
 
 position of ions in cartesian coordinates  (Angst):
   0.00000000  0.00000000  6.00000000
   1.23406666  0.71248872  6.00000000
 


--------------------------------------------------------------------------------------------------------


 k-point   1 :   0.0000 0.0000 0.0000  plane waves:    1707
 k-point   2 :   0.0263 0.0263 0.0000  plane waves:    1712
 k-point   3 :   0.0526 0.0526 0.0000  plane waves:    1706
 k-point   4 :   0.0789 0.0789 0.0000  plane waves:    1726
 k-point   5 :   0.1053 0.1053 0.0000  plane waves:    1728
 k-point   6 :   0.1316 0.1316 0.0000  plane waves:    1726
 k-point   7 :   0.1579 0.1579 0.0000  plane waves:    1730
 k-point   8 :   0.1842 0.1842 0.0000  plane waves:    1716
 k-point   9 :   0.2105 0.2105 0.0000  plane waves:    1716
 k-point  10 :   0.2368 0.2368 0.0000  plane waves:    1718
 k-point  11 :   0.2632 0.2632 0.0000  plane waves:    1720
 k-point  12 :   0.2895 0.2895 0.0000  plane waves:    1724
 k-point  13 :   0.3158 0.3158 0.0000  plane waves:    1714
 k-point  14 :   0.3421 0.3421 0.0000  plane waves:    1708
 k-point  15 :   0.3684 0.3684 0.0000  plane waves:    1696
 k-point  16 :   0.3947 0.3947 0.0000  plane waves:    1694
 k-point  17 :   0.4211 0.4211 0.0000  plane waves:    1686
 k-point  18 :   0.4474 0.4474 0.0000  plane waves:    1700
 k-point  19 :   0.4737 0.4737 0.0000  plane waves:    1686
 k-point  20 :   0.5000 0.5000 0.0000  plane waves:    1692
 k-point  21 :   0.5000 0.5000 0.0000  plane waves:    1692
 k-point  22 :   0.4912 0.5088 0.0000  plane waves:    1690
 k-point  23 :   0.4825 0.5175 0.0000  plane waves:    1692
 k-point  24 :   0.4737 0.5263 0.0000  plane waves:    1700
 k-point  25 :   0.4649 0.5351 0.0000  plane waves:    1696
 k-point  26 :   0.4561 0.5439 0.0000  plane waves:    1700
 k-point  27 :   0.4474 0.5526 0.0000  plane waves:    1700
 k-point  28 :   0.4386 0.5614 0.0000  plane waves:    1696
 k-point  29 :   0.4298 0.5702 0.0000  plane waves:    1692
 k-point  30 :   0.4211 0.5789 0.0000  plane waves:    1692
 k-point  31 :   0.4123 0.5877 0.0000  plane waves:    1690
 k-point  32 :   0.4035 0.5965 0.0000  plane waves:    1690
 k-point  33 :   0.3947 0.6053 0.0000  plane waves:    1688
 k-point  34 :   0.3860 0.6140 0.0000  plane waves:    1688
 k-point  35 :   0.3772 0.6228 0.0000  plane waves:    1678
 k-point  36 :   0.3684 0.6316 0.0000  plane waves:    1680
 k-point  37 :   0.3596 0.6404 0.0000  plane waves:    1684
 k-point  38 :   0.3509 0.6491 0.0000  plane waves:    1690
 k-point  39 :   0.3421 0.6579 0.0000  plane waves:    1694
 k-point  40 :   0.3333 0.6667 0.0000  plane waves:    1698
 k-point  41 :   0.3333 0.6667 0.0000  plane waves:    1698
 k-point  42 :   0.3158 0.6316 0.0000  plane waves:    1694
 k-point  43 :   0.2982 0.5965 0.0000  plane waves:    1684
 k-point  44 :   0.2807 0.5614 0.0000  plane waves:    1683
 k-point  45 :   0.2632 0.5263 0.0000  plane waves:    1693
 k-point  46 :   0.2456 0.4912 0.0000  plane waves:    1695
 k-point  47 :   0.2281 0.4561 0.0000  plane waves:    1697
 k-point  48 :   0.2105 0.4211 0.0000  plane waves:    1697
 k-point  49 :   0.1930 0.3860 0.0000  plane waves:    1709
 k-point  50 :   0.1754 0.3509 0.0000  plane waves:    1723
 k-point  51 :   0.1579 0.3158 0.0000  plane waves:    1727
 k-point  52 :   0.1404 0.2807 0.0000  plane waves:    1713
 k-point  53 :   0.1228 0.2456 0.0000  plane waves:    1715
 k-point  54 :   0.1053 0.2105 0.0000  plane waves:    1711
 k-point  55 :   0.0877 0.1754 0.0000  plane waves:    1717
 k-point  56 :   0.0702 0.1404 0.0000  plane waves:    1721
 k-point  57 :   0.0526 0.1053 0.0000  plane waves:    1727
 k-point  58 :   0.0351 0.0702 0.0000  plane waves:    1713
 k-point  59 :   0.0175 0.0351 0.0000  plane waves:    1713
 k-point  60 :   0.0000 0.0000 0.0000  plane waves:    1707

 maximum and minimum number of plane-waves per node :       125       97

 maximum number of plane-waves:      1730
 maximum index in each direction: 
   IXMAX=    4   IYMAX=    4   IZMAX=   22
   IXMIN=   -5   IYMIN=   -5   IZMIN=  -22


 parallel 3D FFT for wavefunctions:
    minimum data exchange during FFTs selected (reduces bandwidth)
 parallel 3D FFT for charge:
    minimum data exchange during FFTs selected (reduces bandwidth)


 total amount of memory used by VASP MPI-rank0    32224. kBytes
=======================================================================

   base      :      30000. kBytes
   nonl-proj :        472. kBytes
   fftplans  :        494. kBytes
   grid      :        756. kBytes
   one-center:          3. kBytes
   wavefun   :        499. kBytes
 
     INWAV:  cpu time      0.1021: real time      0.1042
 initial charge density was supplied:
 number of electron       7.9999997 magnetization 
 keeping initial charge density in first step


--------------------------------------------------------------------------------------------------------


 Maximum index for augmentation-charges          588 (set IRDMAX)


--------------------------------------------------------------------------------------------------------


 First call to EWALD:  gamma=   0.445
 Maximum number of real-space cells 5x 5x 1
 Maximum number of reciprocal cells 2x 2x 7

    FEWALD:  cpu time      0.0017: real time      0.0023


--------------------------------------- Iteration      1(   1)  ---------------------------------------


    POTLOK:  cpu time      0.0120: real time      0.0273
    SETDIJ:  cpu time      0.0020: real time      0.0055
     EDDAV:  cpu time      0.2753: real time      0.2876
       DOS:  cpu time      0.0015: real time      0.0037
    --------------------------------------------
      LOOP:  cpu time      0.2909: real time      0.3242

 eigenvalue-minimisations  :  1096
 total energy-change (2. order) :-0.1657227E+02  (-0.5085610E+02)
 number of electron       7.9999997 magnetization 
 augmentation part        7.9999997 magnetization 

 Free energy of the ion-electron system (eV)
  ---------------------------------------------------
  alpha Z        PSCENC =         5.19040345
  Ewald energy   TEWEN  =       560.32934460
  -Hartree energ DENC   =      -817.36188127
  -exchange      EXHF   =         0.00000000
  -V(xc)+E(xc)   XCENC  =        27.52791154
  PAW double counting   =       831.56450662     -832.93124065
  entropy T*S    EENTRO =        -0.00056967
  eigenvalues    EBANDS =       -85.18853390
  atomic energy  EATOM  =       294.29778662
  Solvation  Ediel_sol  =         0.00000000
  ---------------------------------------------------
  free energy    TOTEN  =       -16.57227266 eV

  energy without entropy =      -16.57170298  energy(sigma->0) =      -16.57198782


--------------------------------------------------------------------------------------------------------




--------------------------------------- Iteration      1(   2)  ---------------------------------------


     EDDAV:  cpu time      0.3235: real time      0.3254
       DOS:  cpu time      0.0013: real time      0.0013
    --------------------------------------------
      LOOP:  cpu time      0.3247: real time      0.3266

 eigenvalue-minimisations  :  1328
 total energy-change (2. order) :-0.7213964E+00  (-0.7200896E+00)
 number of electron       7.9999997 magnetization 
 augmentation part        7.9999997 magnetization 

 Free energy of the ion-electron system (eV)
  ---------------------------------------------------
  alpha Z        PSCENC =         5.19040345
  Ewald energy   TEWEN  =       560.32934460
  -Hartree energ DENC   =      -817.36188127
  -exchange      EXHF   =         0.00000000
  -V(xc)+E(xc)   XCENC  =        27.52791154
  PAW double counting   =       831.56450662     -832.93124065
  entropy T*S    EENTRO =        -0.00188063
  eigenvalues    EBANDS =       -85.90861934
  atomic energy  EATOM  =       294.29778662
  Solvation  Ediel_sol  =         0.00000000
  ---------------------------------------------------
  free energy    TOTEN  =       -17.29366904 eV

  energy without entropy =      -17.29178842  energy(sigma->0) =      -17.29272873


--------------------------------------------------------------------------------------------------------




--------------------------------------- Iteration      1(   3)  ---------------------------------------


     EDDAV:  cpu time      0.3433: real time      0.3432
       DOS:  cpu time      0.0012: real time      0.0012
    --------------------------------------------
      LOOP:  cpu time      0.3445: real time      0.3444

 eigenvalue-minimisations  :  1440
 total energy-change (2. order) :-0.3153482E-02  (-0.3153479E-02)
 number of electron       7.9999997 magnetization 
 augmentation part        7.9999997 magnetization 

 Free energy of the ion-electron system (eV)
  ---------------------------------------------------
  alpha Z        PSCENC =         5.19040345
  Ewald energy   TEWEN  =       560.32934460
  -Hartree energ DENC   =      -817.36188127
  -exchange      EXHF   =         0.00000000
  -V(xc)+E(xc)   XCENC  =        27.52791154
  PAW double counting   =       831.56450662     -832.93124065
  entropy T*S    EENTRO =        -0.00188063
  eigenvalues    EBANDS =       -85.91177282
  atomic energy  EATOM  =       294.29778662
  Solvation  Ediel_sol  =         0.00000000
  ---------------------------------------------------
  free energy    TOTEN  =       -17.29682253 eV

  energy without entropy =      -17.29494190  energy(sigma->0) =      -17.29588221


--------------------------------------------------------------------------------------------------------




--------------------------------------- Iteration      1(   4)  ---------------------------------------


     EDDAV:  cpu time      0.3507: real time      0.3506
       DOS:  cpu time      0.0013: real time      0.0013
    --------------------------------------------
      LOOP:  cpu time      0.3521: real time      0.3520

 eigenvalue-minimisations  :  1488
 total energy-change (2. order) :-0.1008639E-04  (-0.1008652E-04)
 number of electron       7.9999997 magnetization 
 augmentation part        7.9999997 magnetization 

 Free energy of the ion-electron system (eV)
  ---------------------------------------------------
  alpha Z        PSCENC =         5.19040345
  Ewald energy   TEWEN  =       560.32934460
  -Hartree energ DENC   =      -817.36188127
  -exchange      EXHF   =         0.00000000
  -V(xc)+E(xc)   XCENC  =        27.52791154
  PAW double counting   =       831.56450662     -832.93124065
  entropy T*S    EENTRO =        -0.00188063
  eigenvalues    EBANDS =       -85.91178290
  atomic energy  EATOM  =       294.29778662
  Solvation  Ediel_sol  =         0.00000000
  ---------------------------------------------------
  free energy    TOTEN  =       -17.29683261 eV

  energy without entropy =      -17.29495198  energy(sigma->0) =      -17.29589230


--------------------------------------------------------------------------------------------------------




--------------------------------------- Iteration      1(   5)  ---------------------------------------


     EDDAV:  cpu time      0.3327: real time      0.3326
       DOS:  cpu time      0.0013: real time      0.0013
    --------------------------------------------
      LOOP:  cpu time      0.3341: real time      0.3340

 eigenvalue-minimisations  :  1416
 total energy-change (2. order) :-0.8940515E-07  (-0.8935634E-07)
 number of electron       7.9999997 magnetization 
 augmentation part        7.9999997 magnetization 

 Free energy of the ion-electron system (eV)
  ---------------------------------------------------
  alpha Z        PSCENC =         5.19040345
  Ewald energy   TEWEN  =       560.32934460
  -Hartree energ DENC   =      -817.36188127
  -exchange      EXHF   =         0.00000000
  -V(xc)+E(xc)   XCENC  =        27.52791154
  PAW double counting   =       831.56450662     -832.93124065
  entropy T*S    EENTRO =        -0.00188063
  eigenvalues    EBANDS =       -85.91178299
  atomic energy  EATOM  =       294.29778662
  Solvation  Ediel_sol  =         0.00000000
  ---------------------------------------------------
  free energy    TOTEN  =       -17.29683270 eV

  energy without entropy =      -17.29495207  energy(sigma->0) =      -17.29589239


--------------------------------------------------------------------------------------------------------




 average (electrostatic) potential at core
  the test charge radii are     0.6991
  (the norm of the test charge is              1.0000)
       1 -57.1967       2 -57.1967
 
 
 
 E-fermi :  -1.7581     XC(G=0):  -3.5709     alpha+bet : -3.1663

 Fermi energy:        -1.7581243597

 k-point     1 :       0.0000    0.0000    0.0000
  band No.  band energies     occupation 
      1     -21.2497      2.00000
      2      -9.3553      2.00000
      3      -4.7873      2.00000
      4      -4.7873      2.00000
      5       1.4632      0.00000
      6       2.6052      0.00000
      7       3.4587      0.00000
      8       6.5868      0.00000

 k-point     2 :       0.0263    0.0263    0.0000
  band No.  band energies     occupation 
      1     -21.2333      2.00000
      2      -9.3358      2.00000
      3      -4.8554      2.00000
      4      -4.8232      2.00000
      5       1.4854      0.00000
      6       2.6275      0.00000
      7       3.4810      0.00000
      8       6.6085      0.00000

 k-point     3 :       0.0526    0.0526    0.0000
  band No.  band energies     occupation 
      1     -21.1843      2.00000
      2      -9.2773      2.00000
      3      -5.0551      2.00000
      4      -4.9277      2.00000
      5       1.5521      0.00000
      6       2.6942      0.00000
      7       3.5480      0.00000
      8       6.5795      0.00000

 k-point     4 :       0.0789    0.0789    0.0000
  band No.  band energies     occupation 
      1     -21.1026      2.00000
      2      -9.1800      2.00000
      3      -5.3745      2.00000
      4      -5.0923      2.00000
      5       1.6632      0.00000
      6       2.8053      0.00000
      7       3.6596      0.00000
      8       6.6041      0.00000

 k-point     5 :       0.1053    0.1053    0.0000
  band No.  band energies     occupation 
      1     -20.9884      2.00000
      2      -9.0441      2.00000
      3      -5.7964      2.00000
      4      -5.3050      2.00000
      5       1.8187      0.00000
      6       2.9608      0.00000
      7       3.8159      0.00000
      8       6.6167      0.00000

 k-point     6 :       0.1316    0.1316    0.0000
  band No.  band energies     occupation 
      1     -20.8418      2.00000
      2      -8.8699      2.00000
      3      -6.3022      2.00000
      4      -5.5526      2.00000
      5       2.0187      0.00000
      6       3.1605      0.00000
      7       4.0169      0.00000
      8       6.6061      0.00000

 k-point     7 :       0.1579    0.1579    0.0000
  band No.  band energies     occupation 
      1     -20.6629      2.00000
      2      -8.6581      2.00000
      3      -6.8735      2.00000
      4      -5.8222      2.00000
      5       2.2630      0.00000
      6       3.4041      0.00000
      7       4.2625      0.00000
      8       6.5683      0.00000

 k-point     8 :       0.1842    0.1842    0.0000
  band No.  band energies     occupation 
      1     -20.4519      2.00000
      2      -8.4093      2.00000
      3      -7.4938      2.00000
      4      -6.1025      2.00000
      5       2.5517      0.00000
      6       3.6910      0.00000
      7       4.5524      0.00000
      8       6.5051      0.00000

 k-point     9 :       0.2105    0.2105    0.0000
  band No.  band energies     occupation 
      1     -20.2091      2.00000
      2      -8.1491      2.00000
      3      -8.1244      2.00000
      4      -6.3841      2.00000
      5       2.8845      0.00000
      6       4.0200      0.00000
      7       4.8863      0.00000
      8       6.4223      0.00000

 k-point    10 :       0.2368    0.2368    0.0000
  band No.  band energies     occupation 
      1     -19.9350      2.00000
      2      -8.8275      2.00000
      3      -7.8047      2.00000
      4      -6.6590      2.00000
      5       3.2612      0.00000
      6       4.4589      0.00000
      7       5.2628      0.00000
      8       5.8392      0.00000

 k-point    11 :       0.2632    0.2632    0.0000
  band No.  band energies     occupation 
      1     -19.6297      2.00000
      2      -9.5195      2.00000
      3      -7.4518      2.00000
      4      -6.9212      2.00000
      5       3.6817      0.00000
      6       4.7305      0.00000
      7       5.2019      0.00000
      8       5.6759      0.00000

 k-point    12 :       0.2895    0.2895    0.0000
  band No.  band energies     occupation 
      1     -19.2940      2.00000
      2     -10.2167      2.00000
      3      -7.1655      2.00000
      4      -7.0680      2.00000
      5       4.1454      0.00000
      6       4.3310      0.00000
      7       5.3369      0.00000
      8       6.0190      0.00000

 k-point    13 :       0.3158    0.3158    0.0000
  band No.  band energies     occupation 
      1     -18.9284      2.00000
      2     -10.9127      2.00000
      3      -7.3882      2.00000
      4      -6.6566      2.00000
      5       3.6191      0.00000
      6       4.6511      0.00000
      7       5.8221      0.00000
      8       5.9846      0.00000

 k-point    14 :       0.3421    0.3421    0.0000
  band No.  band energies     occupation 
      1     -18.5339      2.00000
      2     -11.6017      2.00000
      3      -7.5862      2.00000
      4      -6.2223      2.00000
      5       2.8981      0.00000
      6       5.1941      0.00000
      7       5.9059      0.00000
      8       6.3653      0.00000

 k-point    15 :       0.3684    0.3684    0.0000
  band No.  band energies     occupation 
      1     -18.1118      2.00000
      2     -12.2785      2.00000
      3      -7.7571      2.00000
      4      -5.7725      2.00000
      5       2.1937      0.00000
      6       5.6909      0.00000
      7       5.9210      0.00000
      8       6.9533      0.00000

 k-point    16 :       0.3947    0.3947    0.0000
  band No.  band energies     occupation 
      1     -17.6643      2.00000
      2     -12.9379      2.00000
      3      -7.8992      2.00000
      4      -5.3192      2.00000
      5       1.5247      0.00000
      6       5.7140      0.00000
      7       6.4633      0.00000
      8       7.5831      0.00000

 k-point    17 :       0.4211    0.4211    0.0000
  band No.  band energies     occupation 
      1     -17.1957      2.00000
      2     -13.5737      2.00000
      3      -8.0109      2.00000
      4      -4.8823      2.00000
      5       0.9158      0.00000
      6       5.6651      0.00000
      7       7.1327      0.00000
      8       8.2522      0.00000

 k-point    18 :       0.4474    0.4474    0.0000
  band No.  band energies     occupation 
      1     -16.7165      2.00000
      2     -14.1734      2.00000
      3      -8.0915      2.00000
      4      -4.4964      2.00000
      5       0.4048      0.00000
      6       5.6257      0.00000
      7       7.8479      0.00000
      8       8.9575      0.00000

 k-point    19 :       0.4737    0.4737    0.0000
  band No.  band energies     occupation 
      1     -16.2640      2.00000
      2     -14.6987      2.00000
      3      -8.1400      2.00000
      4      -4.2171      2.00000
      5       0.0495      0.00000
      6       5.6012      0.00000
      7       8.6020      0.00000
      8       9.6919      0.00000

 k-point    20 :       0.5000    0.5000    0.0000
  band No.  band energies     occupation 
      1     -16.0195      2.00000
      2     -14.9675      2.00000
      3      -8.1563      2.00000
      4      -4.1124      2.00000
      5      -0.0806      0.00000
      6       5.5929      0.00000
      7       9.3235      0.00000
      8       9.4703      0.00000

 k-point    21 :       0.5000    0.5000    0.0000
  band No.  band energies     occupation 
      1     -16.0195      2.00000
      2     -14.9675      2.00000
      3      -8.1563      2.00000
      4      -4.1124      2.00000
      5      -0.0806      0.00000
      6       5.5929      0.00000
      7       9.3235      0.00000
      8       9.4703      0.00000

 k-point    22 :       0.4912    0.5088    0.0000
  band No.  band energies     occupation 
      1     -16.0148      2.00000
      2     -14.9629      2.00000
      3      -8.1809      2.00000
      4      -4.1058      2.00000
      5      -0.0822      0.00000
      6       5.6262      0.00000
      7       9.3300      0.00000
      8       9.4772      0.00000

 k-point    23 :       0.4825    0.5175    0.0000
  band No.  band energies     occupation 
      1     -16.0008      2.00000
      2     -14.9490      2.00000
      3      -8.2541      2.00000
      4      -4.0859      2.00000
      5      -0.0870      0.00000
      6       5.7253      0.00000
      7       9.3493      0.00000
      8       9.4978      0.00000

 k-point    24 :       0.4737    0.5263    0.0000
  band No.  band energies     occupation 
      1     -15.9774      2.00000
      2     -14.9261      2.00000
      3      -8.3735      2.00000
      4      -4.0528      2.00000
      5      -0.0955      0.00000
      6       5.8876      0.00000
      7       9.3815      0.00000
      8       9.5320      0.00000

 k-point    25 :       0.4649    0.5351    0.0000
  band No.  band energies     occupation 
      1     -15.9447      2.00000
      2     -14.8941      2.00000
      3      -8.5354      2.00000
      4      -4.0064      2.00000
      5      -0.1082      0.00000
      6       6.1093      0.00000
      7       9.4263      0.00000
      8       9.5798      0.00000

 k-point    26 :       0.4561    0.5439    0.0000
  band No.  band energies     occupation 
      1     -15.9026      2.00000
      2     -14.8533      2.00000
      3      -8.7355      2.00000
      4      -3.9469      2.00000
      5      -0.1262      0.00000
      6       6.3854      0.00000
      7       9.4837      0.00000
      8       9.6412      0.00000

 k-point    27 :       0.4474    0.5526    0.0000
  band No.  band energies     occupation 
      1     -15.8512      2.00000
      2     -14.8039      2.00000
      3      -8.9686      2.00000
      4      -3.8742      2.00000
      5      -0.1506      0.00000
      6       6.7102      0.00000
      7       9.5534      0.00000
      8       9.7159      0.00000

 k-point    28 :       0.4386    0.5614    0.0000
  band No.  band energies     occupation 
      1     -15.7904      2.00000
      2     -14.7464      2.00000
      3      -9.2296      2.00000
      4      -3.7883      2.00000
      5      -0.1828      0.00000
      6       7.0777      0.00000
      7       9.6350      0.00000
      8       9.8038      0.00000

 k-point    29 :       0.4298    0.5702    0.0000
  band No.  band energies     occupation 
      1     -15.7203      2.00000
      2     -14.6812      2.00000
      3      -9.5130      2.00000
      4      -3.6893      2.00000
      5      -0.2245      0.00000
      6       7.4816      0.00000
      7       9.7369      0.00000
      8      10.0486      0.00000

 k-point    30 :       0.4211    0.5789    0.0000
  band No.  band energies     occupation 
      1     -15.6409      2.00000
      2     -14.6092      2.00000
      3      -9.8140      2.00000
      4      -3.5774      2.00000
      5      -0.2774      0.00000
      6       7.9150      0.00000
      7       9.8371      0.00000
      8       9.9293      0.00000

 k-point    31 :       0.4123    0.5877    0.0000
  band No.  band energies     occupation 
      1     -15.5522      2.00000
      2     -14.5313      2.00000
      3     -10.1273      2.00000
      4      -3.4524      2.00000
      5      -0.3434      0.00000
      6       8.3711      0.00000
      7       9.7893      0.00000
      8       9.9473      0.00000

 k-point    32 :       0.4035    0.5965    0.0000
  band No.  band energies     occupation 
      1     -15.4542      2.00000
      2     -14.4490      2.00000
      3     -10.4480      2.00000
      4      -3.3145      2.00000
      5      -0.4245      0.00000
      6       8.8417      0.00000
      7       9.6361      0.00000
      8      10.0707      0.00000

 k-point    33 :       0.3947    0.6053    0.0000
  band No.  band energies     occupation 
      1     -15.3470      2.00000
      2     -14.3646      2.00000
      3     -10.7708      2.00000
      4      -3.1638      2.00000
      5      -0.5224      0.00000
      6       9.3178      0.00000
      7       9.4791      0.00000
      8      10.2009      0.00000

 k-point    34 :       0.3860    0.6140    0.0000
  band No.  band energies     occupation 
      1     -15.2305      2.00000
      2     -14.2815      2.00000
      3     -11.0895      2.00000
      4      -3.0003      2.00000
      5      -0.6388      0.00000
      6       9.3274      0.00000
      7       9.7843      0.00000
      8      10.3400      0.00000

 k-point    35 :       0.3772    0.6228    0.0000
  band No.  band energies     occupation 
      1     -15.1048      2.00000
      2     -14.2049      2.00000
      3     -11.3966      2.00000
      4      -2.8242      2.00000
      5      -0.7748      0.00000
      6       9.1891      0.00000
      7      10.2487      0.00000
      8      10.5018      0.00000

 k-point    36 :       0.3684    0.6316    0.0000
  band No.  band energies     occupation 
      1     -14.9698      2.00000
      2     -14.1435      2.00000
      3     -11.6817      2.00000
      4      -2.6355      2.00000
      5      -0.9314      0.00000
      6       9.0707      0.00000
      7      10.5879      0.00000
      8      10.6341      0.00000

 k-point    37 :       0.3596    0.6404    0.0000
  band No.  band energies     occupation 
      1     -14.8258      2.00000
      2     -14.1099      2.00000
      3     -11.9304      2.00000
      4      -2.4344      2.00000
      5      -1.1086      0.00000
      6       8.9766      0.00000
      7      10.7674      0.00000
      8      10.8487      0.00000

 k-point    38 :       0.3509    0.6491    0.0000
  band No.  band energies     occupation 
      1     -14.6725      2.00000
      2     -14.1216      2.00000
      3     -12.1239      2.00000
      4      -2.2211      2.00000
      5      -1.3062      0.00000
      6       8.9094      0.00000
      7      10.8954      0.00000
      8      11.0209      0.00000

 k-point    39 :       0.3421    0.6579    0.0000
  band No.  band energies     occupation 
      1     -14.5102      2.00000
      2     -14.1957      2.00000
      3     -12.2439      2.00000
      4      -1.9956      2.00000
      5      -1.5231      0.00000
      6       8.8699      0.00000
      7      11.0131      0.00000
      8      11.1204      0.00000

 k-point    40 :       0.3333    0.6667    0.0000
  band No.  band energies     occupation 
      1     -14.3389      2.00000
      2     -14.3389      2.00000
      3     -12.2828      2.00000
      4      -1.7581      1.00005
      5      -1.7581      0.99995
      6       8.8573      0.00000
      7      11.1062      0.00000
      8      11.1161      0.00000

 k-point    41 :       0.3333    0.6667    0.0000
  band No.  band energies     occupation 
      1     -14.3389      2.00000
      2     -14.3389      2.00000
      3     -12.2828      2.00000
      4      -1.7581      1.00005
      5      -1.7581      0.99995
      6       8.8573      0.00000
      7      11.1062      0.00000
      8      11.1161      0.00000

 k-point    42 :       0.3158    0.6316    0.0000
  band No.  band energies     occupation 
      1     -14.7889      2.00000
      2     -13.9692      2.00000
      3     -12.1582      2.00000
      4      -2.2744      2.00000
      5      -1.2481      0.00000
      6       8.8991      0.00000
      7      10.6221      0.00000
      8      11.2284      0.00000

 k-point    43 :       0.2982    0.5965    0.0000
  band No.  band energies     occupation 
      1     -15.3512      2.00000
      2     -13.5641      2.00000
      3     -11.8660      2.00000
      4      -2.8379      2.00000
      5      -0.6926      0.00000
      6       8.9806      0.00000
      7       9.8061      0.00000
      8      11.2253      0.00000

 k-point    44 :       0.2807    0.5614    0.0000
  band No.  band energies     occupation 
      1     -15.9463      2.00000
      2     -13.1243      2.00000
      3     -11.4832      2.00000
      4      -3.4304      2.00000
      5      -0.0940      0.00000
      6       8.9255      0.00000
      7       8.9712      0.00000
      8      10.9888      0.00000

 k-point    45 :       0.2632    0.5263    0.0000
  band No.  band energies     occupation 
      1     -16.5391      2.00000
      2     -12.6506      2.00000
      3     -11.0441      2.00000
      4      -4.0353      2.00000
      5       0.5453      0.00000
      6       8.0577      0.00000
      7       8.6786      0.00000
      8      10.1118      0.00000

 k-point    46 :       0.2456    0.4912    0.0000
  band No.  band energies     occupation 
      1     -17.1133      2.00000
      2     -12.1440      2.00000
      3     -10.5651      2.00000
      4      -4.6383      2.00000
      5       1.2220      0.00000
      6       7.2275      0.00000
      7       8.1153      0.00000
      8       9.2737      0.00000

 k-point    47 :       0.2281    0.4561    0.0000
  band No.  band energies     occupation 
      1     -17.6606      2.00000
      2     -11.6061      2.00000
      3     -10.0566      2.00000
      4      -5.2280      2.00000
      5       1.9321      0.00000
      6       6.4450      0.00000
      7       7.4506      0.00000
      8       8.4821      0.00000

 k-point    48 :       0.2105    0.4211    0.0000
  band No.  band energies     occupation 
      1     -18.1758      2.00000
      2     -11.0389      2.00000
      3      -9.5264      2.00000
      4      -5.7953      2.00000
      5       2.6707      0.00000
      6       5.7151      0.00000
      7       6.7789      0.00000
      8       7.7439      0.00000

 k-point    49 :       0.1930    0.3860    0.0000
  band No.  band energies     occupation 
      1     -18.6559      2.00000
      2     -10.4449      2.00000
      3      -8.9819      2.00000
      4      -6.3332      2.00000
      5       3.4316      0.00000
      6       5.0403      0.00000
      7       6.1360      0.00000
      8       7.0620      0.00000

 k-point    50 :       0.1754    0.3509    0.0000
  band No.  band energies     occupation 
      1     -19.0986      2.00000
      2      -9.8275      2.00000
      3      -8.4306      2.00000
      4      -6.8363      2.00000
      5       4.2073      0.00000
      6       4.4220      0.00000
      7       5.5365      0.00000
      8       6.4380      0.00000

 k-point    51 :       0.1579    0.3158    0.0000
  band No.  band energies     occupation 
      1     -19.5021      2.00000
      2      -9.1913      2.00000
      3      -7.8810      2.00000
      4      -7.3002      2.00000
      5       3.8613      0.00000
      6       4.9872      0.00000
      7       4.9884      0.00000
      8       5.8725      0.00000

 k-point    52 :       0.1404    0.2807    0.0000
  band No.  band energies     occupation 
      1     -19.8655      2.00000
      2      -8.5425      2.00000
      3      -7.7218      2.00000
      4      -7.3424      2.00000
      5       3.3588      0.00000
      6       4.4918      0.00000
      7       5.3660      0.00000
      8       5.7633      0.00000

 k-point    53 :       0.1228    0.2456    0.0000
  band No.  band energies     occupation 
      1     -20.1877      2.00000
      2      -8.0984      2.00000
      3      -7.8896      2.00000
      4      -6.8252      2.00000
      5       2.9149      0.00000
      6       4.0522      0.00000
      7       4.9189      0.00000
      8       6.5177      0.00000

 k-point    54 :       0.1053    0.2105    0.0000
  band No.  band energies     occupation 
      1     -20.4681      2.00000
      2      -8.4281      2.00000
      3      -7.2441      2.00000
      4      -6.3409      2.00000
      5       2.5299      0.00000
      6       3.6698      0.00000
      7       4.5313      0.00000
      8       7.1452      0.00000

 k-point    55 :       0.0877    0.1754    0.0000
  band No.  band energies     occupation 
      1     -20.7062      2.00000
      2      -8.7093      2.00000
      3      -6.6217      2.00000
      4      -5.9018      2.00000
      5       2.2040      0.00000
      6       3.3453      0.00000
      7       4.2034      0.00000
      8       6.9429      0.00000

 k-point    56 :       0.0702    0.1404    0.0000
  band No.  band energies     occupation 
      1     -20.9015      2.00000
      2      -8.9408      2.00000
      3      -6.0436      2.00000
      4      -5.5204      2.00000
      5       1.9373      0.00000
      6       3.0792      0.00000
      7       3.9352      0.00000
      8       6.7875      0.00000

 k-point    57 :       0.0526    0.1053    0.0000
  band No.  band energies     occupation 
      1     -21.0537      2.00000
      2      -9.1217      2.00000
      3      -5.5376      2.00000
      4      -5.2088      2.00000
      5       1.7299      0.00000
      6       2.8720      0.00000
      7       3.7266      0.00000
      8       6.6753      0.00000

 k-point    58 :       0.0351    0.0702    0.0000
  band No.  band energies     occupation 
      1     -21.1625      2.00000
      2      -9.2513      2.00000
      3      -5.1372      2.00000
      4      -4.9777      2.00000
      5       1.5817      0.00000
      6       2.7238      0.00000
      7       3.5778      0.00000
      8       6.6012      0.00000

 k-point    59 :       0.0175    0.0351    0.0000
  band No.  band energies     occupation 
      1     -21.2279      2.00000
      2      -9.3293      2.00000
      3      -4.8776      2.00000
      4      -4.8354      2.00000
      5       1.4929      0.00000
      6       2.6349      0.00000
      7       3.4884      0.00000
      8       6.5602      0.00000

 k-point    60 :       0.0000    0.0000    0.0000
  band No.  band energies     occupation 
      1     -21.2497      2.00000
      2      -9.3553      2.00000
      3      -4.7873      2.00000
      4      -4.7873      2.00000
      5       1.4632      0.00000
      6       2.6052      0.00000
      7       3.4587      0.00000
      8       6.5464      0.00000


--------------------------------------------------------------------------------------------------------


 soft charge-density along one line, spin component           1
         0         1         2         3         4         5         6         7         8         9
 total charge-density along one line
 
 pseudopotential strength for first ion, spin component:           1
 10.158  13.508   0.000   0.000   0.000  -0.000  -0.000  -0.000
 13.508  17.960   0.000   0.000   0.000  -0.000  -0.000  -0.000
  0.000   0.000  -4.295  -0.000   0.000   8.400   0.000  -0.000
  0.000   0.000  -0.000  -4.287  -0.000   0.000   8.391   0.000
  0.000   0.000   0.000  -0.000  -4.295  -0.000   0.000   8.400
 -0.000  -0.000   8.400   0.000  -0.000 -18.565  -0.000   0.000
 -0.000  -0.000   0.000   8.391   0.000  -0.000 -18.556  -0.000
 -0.000  -0.000  -0.000   0.000   8.400   0.000  -0.000 -18.565
 total augmentation occupancy for first ion, spin component:           1
  2.000   0.000   0.000   0.000   0.000   0.000   0.000   0.000
  0.000   0.000   0.000   0.000   0.000   0.000   0.000   0.000
  0.000   0.000   0.667   0.000   0.000   0.000   0.000   0.000
  0.000   0.000   0.000   0.667   0.000   0.000   0.000   0.000
  0.000   0.000   0.000   0.000   0.667   0.000   0.000   0.000
  0.000   0.000   0.000   0.000   0.000   0.000   0.000   0.000
  0.000   0.000   0.000   0.000   0.000   0.000   0.000   0.000
  0.000   0.000   0.000   0.000   0.000   0.000   0.000   0.000


------------------------ aborting loop because EDIFF is reached ----------------------------------------


    CHARGE:  cpu time      0.0184: real time      0.0258
    FORLOC:  cpu time      0.0003: real time      0.0009
    FORNL :  cpu time      0.0140: real time      0.0167
    STRESS:  cpu time      0.0476: real time      0.0511
    FORCOR:  cpu time      0.0085: real time      0.0110
    FORHAR:  cpu time      0.0018: real time      0.0039
    OFIELD:  cpu time      0.0001: real time      0.0001

  FORCE on cell =-STRESS in cart. coord.  units (eV):
  Direction    XX          YY          ZZ          XY          YZ          ZX
  --------------------------------------------------------------------------------------
  Alpha Z     5.19040     5.19040     5.19040
  Ewald     828.96970   828.96971 -1097.61002    -0.00001     0.00000    -0.00000
  Hartree   807.41178   807.41178  -795.64435    -0.00000    -0.00000    -0.00000
  E(xc)     -29.69241   -29.69241   -30.80446    -0.00000     0.00000     0.00000
  Local   -1723.87633 -1723.87634  1789.45773     0.00001     0.00000    -0.00000
  n-local    -7.95750    -8.18858    -7.43987    -0.10485     0.00000    -0.00000
  augment    -0.82083    -0.82082    -0.75486    -0.00001     0.00000    -0.00000
  Kinetic   122.63504   122.35961   138.42586     2.96102    -0.00000    -0.00000
  Fock        0.00000     0.00000     0.00000     0.00000     0.00000     0.00000
  -------------------------------------------------------------------------------------
  Total       1.60661     1.60661     0.82043    -0.00000     0.00000     0.00000
  in kB      40.66041    40.66041    20.76357    -0.00000     0.00000     0.00000
  external pressure =       34.03 kB  Pullay stress =        0.00 kB


 VOLUME and BASIS-vectors are now :
 -----------------------------------------------------------------------------
  energy-cutoff  :      520.00
  volume of cell :       63.31
      direct lattice vectors                 reciprocal lattice vectors
     2.468133242  0.000000000  0.000000000     0.405164512 -0.233921840  0.000000000
     1.234066621  2.137466087  0.000000000     0.000000000  0.467843680  0.000000000
     0.000000000  0.000000000 12.000000000     0.000000000  0.000000000  0.083333333

  length of vectors
     2.468133242  2.468133242 12.000000000     0.467843680  0.467843680  0.083333333


 FORCES acting on ions
    electron-ion (+dipol)            ewald-force                    non-local-force                 convergence-correction
 -----------------------------------------------------------------------------------------------
   -.895E-06 -.523E-06 -.222E-06   0.648E-05 0.385E-05 0.322E-19   0.000E+00 0.111E-15 0.000E+00   -.350E-04 -.202E-04 -.187E-10
   -.614E-05 -.365E-05 0.222E-06   -.648E-05 -.385E-05 -.322E-19   -.694E-17 -.111E-15 0.000E+00   0.656E-04 0.379E-04 -.228E-10
 -----------------------------------------------------------------------------------------------
   -.704E-05 -.417E-05 -.133E-11   -.114E-13 0.255E-14 0.000E+00   -.694E-17 0.000E+00 0.000E+00   0.306E-04 0.177E-04 -.415E-10
 
 
 POSITION                                       TOTAL-FORCE (eV/Angst)
 -----------------------------------------------------------------------------------
      0.00000      0.00000      6.00000        -0.000000      0.000000      0.000000
      1.23407      0.71249      6.00000         0.000000     -0.000000      0.000000
 -----------------------------------------------------------------------------------
    total drift:                                0.000024      0.000014     -0.000000


--------------------------------------------------------------------------------------------------------



  FREE ENERGIE OF THE ION-ELECTRON SYSTEM (eV)
  ---------------------------------------------------
  free  energy   TOTEN  =       -17.29683270 eV

  energy  without entropy=      -17.29495207  energy(sigma->0) =      -17.29589239
 


--------------------------------------------------------------------------------------------------------


    POTLOK:  cpu time      0.0104: real time      0.0114


--------------------------------------------------------------------------------------------------------


     LOOP+:  cpu time      1.7584: real time      1.8413
    4ORBIT:  cpu time      0.0000: real time      0.0000

 total amount of memory used by VASP MPI-rank0    32224. kBytes
=======================================================================

   base      :      30000. kBytes
   nonl-proj :        472. kBytes
   fftplans  :        494. kBytes
   grid      :        756. kBytes
   one-center:          3. kBytes
   wavefun   :        499. kBytes
 
  
  
 General timing and accounting informations for this job:
 ========================================================
  
                  Total CPU time used (sec):        2.798
                            User time (sec):        2.274
                          System time (sec):        0.523
                         Elapsed time (sec):        4.084
  
                   Maximum memory used (kb):      253192.
                   Average memory used (kb):          N/A
  
                          Minor page faults:        28599
                          Major page faults:            0
                 Voluntary context switches:         5857
