<?xml version="1.0" encoding="ISO-8859-1"?>
<modeling>
 <generator>
  <i name="program" type="string">vasp </i>
  <i name="version" type="string">6.3.0  </i>
  <i name="subversion" type="string">20Jan22 (build Jan 26 2022 20:51:09) complex                          parallel </i>
  <i name="platform" type="string">LinuxIFC </i>
  <i name="date" type="string">2023 07 15 </i>
  <i name="time" type="string">22:52:21 </i>
 </generator>
 <incar>
  <i type="int" name="ISTART">     1</i>
  <i type="string" name="PREC">A       (Precision level)</i>
  <i type="logical" name="ADDGRID"> F  </i>
  <i type="int" name="ISPIN">     1</i>
  <i type="int" name="ICHARG">    11</i>
  <i type="int" name="NELM">   200</i>
  <i type="int" name="IBRION">    -1</i>
  <i name="EDIFF">      0.00000100</i>
  <i name="EDIFFG">     -0.00001000</i>
  <i type="int" name="NSW">     0</i>
  <i type="int" name="ISIF">     3</i>
  <i name="ENCUT">    520.00000000</i>
  <i type="logical" name="LREAL"> F  </i>
  <i type="int" name="ISMEAR">     0</i>
  <i name="SIGMA">      0.05000000</i>
  <i type="logical" name="LWAVE"> F  </i>
  <i type="logical" name="LCHARG"> F  </i>
 </incar>
 <primitive_cell>
  <structure name="primitive_cell" >
   <crystal>
    <varray name="basis" >
     <v>       2.46813324       0.00000000       0.00000000 </v>
     <v>       1.23406662       2.13746609       0.00000000 </v>
     <v>       0.00000000       0.00000000      12.00000000 </v>
    </varray>
    <i name="volume">     63.30661323 </i>
    <varray name="rec_basis" >
     <v>       0.40516451      -0.23392184       0.00000000 </v>
     <v>       0.00000000       0.46784368       0.00000000 </v>
     <v>       0.00000000       0.00000000       0.08333333 </v>
    </varray>
   </crystal>
   <varray name="positions" >
    <v>       0.00000000       0.00000000       0.50000000 </v>
    <v>       0.33333334       0.33333334       0.50000000 </v>
   </varray>
  </structure>
  <varray name="primitive_index" >
   <v type="int" >        1 </v>
   <v type="int" >        2 </v>
  </varray>
 </primitive_cell>
 <kpoints>
  <generation param="listgenerated">
   <i name="divisions" type="int">      20 </i>
   <v>       0.00000000       0.00000000       0.00000000 </v>
   <v>       0.50000000       0.50000000       0.00000000 </v>
   <v>       0.33333333       0.66666667       0.00000000 </v>
   <v>       0.00000000       0.00000000       0.00000000 </v>
  </generation>
  <varray name="kpointlist" >
   <v>       0.00000000       0.00000000       0.00000000 </v>
   <v>       0.02631579       0.02631579       0.00000000 </v>
   <v>       0.05263158       0.05263158       0.00000000 </v>
   <v>       0.07894737       0.07894737       0.00000000 </v>
   <v>       0.10526316       0.10526316       0.00000000 </v>
   <v>       0.13157895       0.13157895       0.00000000 </v>
   <v>       0.15789474       0.15789474       0.00000000 </v>
   <v>       0.18421053       0.18421053       0.00000000 </v>
   <v>       0.21052632       0.21052632       0.00000000 </v>
   <v>       0.23684211       0.23684211       0.00000000 </v>
   <v>       0.26315789       0.26315789       0.00000000 </v>
   <v>       0.28947368       0.28947368       0.00000000 </v>
   <v>       0.31578947       0.31578947       0.00000000 </v>
   <v>       0.34210526       0.34210526       0.00000000 </v>
   <v>       0.36842105       0.36842105       0.00000000 </v>
   <v>       0.39473684       0.39473684       0.00000000 </v>
   <v>       0.42105263       0.42105263       0.00000000 </v>
   <v>       0.44736842       0.44736842       0.00000000 </v>
   <v>       0.47368421       0.47368421       0.00000000 </v>
   <v>       0.50000000       0.50000000       0.00000000 </v>
   <v>       0.50000000       0.50000000       0.00000000 </v>
   <v>       0.49122807       0.50877193       0.00000000 </v>
   <v>       0.48245614       0.51754386       0.00000000 </v>
   <v>       0.47368421       0.52631579       0.00000000 </v>
   <v>       0.46491228       0.53508772       0.00000000 </v>
   <v>       0.45614035       0.54385965       0.00000000 </v>
   <v>       0.44736842       0.55263158       0.00000000 </v>
   <v>       0.43859649       0.56140351       0.00000000 </v>
   <v>       0.42982456       0.57017544       0.00000000 </v>
   <v>       0.42105263       0.57894737       0.00000000 </v>
   <v>       0.41228070       0.58771930       0.00000000 </v>
   <v>       0.40350877       0.59649123       0.00000000 </v>
   <v>       0.39473684       0.60526316       0.00000000 </v>
   <v>       0.38596491       0.61403509       0.00000000 </v>
   <v>       0.37719298       0.62280702       0.00000000 </v>
   <v>       0.36842105       0.63157895       0.00000000 </v>
   <v>       0.35964912       0.64035088       0.00000000 </v>
   <v>       0.35087719       0.64912281       0.00000000 </v>
   <v>       0.34210526       0.65789474       0.00000000 </v>
   <v>       0.33333333       0.66666667       0.00000000 </v>
   <v>       0.33333333       0.66666667       0.00000000 </v>
   <v>       0.31578947       0.63157895       0.00000000 </v>
   <v>       0.29824561       0.59649123       0.00000000 </v>
   <v>       0.28070175       0.56140351       0.00000000 </v>
   <v>       0.26315789       0.52631579       0.00000000 </v>
   <v>       0.24561404       0.49122807       0.00000000 </v>
   <v>       0.22807018       0.45614035       0.00000000 </v>
   <v>       0.21052632       0.42105263       0.00000000 </v>
   <v>       0.19298246       0.38596491       0.00000000 </v>
   <v>       0.17543860       0.35087719       0.00000000 </v>
   <v>       0.15789474       0.31578947       0.00000000 </v>
   <v>       0.14035088       0.28070175       0.00000000 </v>
   <v>       0.12280702       0.24561404       0.00000000 </v>
   <v>       0.10526316       0.21052632       0.00000000 </v>
   <v>       0.08771930       0.17543860       0.00000000 </v>
   <v>       0.07017544       0.14035088       0.00000000 </v>
   <v>       0.05263158       0.10526316       0.00000000 </v>
   <v>       0.03508772       0.07017544       0.00000000 </v>
   <v>       0.01754386       0.03508772       0.00000000 </v>
   <v>       0.00000000       0.00000000       0.00000000 </v>
  </varray>
  <varray name="weights" >
   <v>       0.01666667 </v>
   <v>       0.01666667 </v>
   <v>       0.01666667 </v>
   <v>       0.01666667 </v>
   <v>       0.01666667 </v>
   <v>       0.01666667 </v>
   <v>       0.01666667 </v>
   <v>       0.01666667 </v>
   <v>       0.01666667 </v>
   <v>       0.01666667 </v>
   <v>       0.01666667 </v>
   <v>       0.01666667 </v>
   <v>       0.01666667 </v>
   <v>       0.01666667 </v>
   <v>       0.01666667 </v>
   <v>       0.01666667 </v>
   <v>       0.01666667 </v>
   <v>       0.01666667 </v>
   <v>       0.01666667 </v>
   <v>       0.01666667 </v>
   <v>       0.01666667 </v>
   <v>       0.01666667 </v>
   <v>       0.01666667 </v>
   <v>       0.01666667 </v>
   <v>       0.01666667 </v>
   <v>       0.01666667 </v>
   <v>       0.01666667 </v>
   <v>       0.01666667 </v>
   <v>       0.01666667 </v>
   <v>       0.01666667 </v>
   <v>       0.01666667 </v>
   <v>       0.01666667 </v>
   <v>       0.01666667 </v>
   <v>       0.01666667 </v>
   <v>       0.01666667 </v>
   <v>       0.01666667 </v>
   <v>       0.01666667 </v>
   <v>       0.01666667 </v>
   <v>       0.01666667 </v>
   <v>       0.01666667 </v>
   <v>       0.01666667 </v>
   <v>       0.01666667 </v>
   <v>       0.01666667 </v>
   <v>       0.01666667 </v>
   <v>       0.01666667 </v>
   <v>       0.01666667 </v>
   <v>       0.01666667 </v>
   <v>       0.01666667 </v>
   <v>       0.01666667 </v>
   <v>       0.01666667 </v>
   <v>       0.01666667 </v>
   <v>       0.01666667 </v>
   <v>       0.01666667 </v>
   <v>       0.01666667 </v>
   <v>       0.01666667 </v>
   <v>       0.01666667 </v>
   <v>       0.01666667 </v>
   <v>       0.01666667 </v>
   <v>       0.01666667 </v>
   <v>       0.01666667 </v>
  </varray>
  <kpoints_labels>
   <i name="GAMMA" type="int">       1 </i>
   <i name="M" type="int">       2 </i>
   <i name="M" type="int">       3 </i>
   <i name="K" type="int">       4 </i>
   <i name="K" type="int">       5 </i>
   <i name="GAMMA" type="int">       6 </i>
  </kpoints_labels>
 </kpoints>
 <parameters>
  <separator name="general" >
   <i type="string" name="SYSTEM">unknown system</i>
   <i type="logical" name="LCOMPAT"> F  </i>
  </separator>
  <separator name="electronic" >
   <i type="string" name="PREC">a</i>
   <i name="ENMAX">    520.00000000</i>
   <i name="ENAUG">    644.87300000</i>
   <i name="EDIFF">      0.00000100</i>
   <i type="int" name="IALGO">    38</i>
   <i type="int" name="IWAVPR">    10</i>
   <i type="int" name="NBANDS">     8</i>
   <i type="int" name="NBANDSLOW">    -1</i>
   <i type="int" name="NBANDSHIGH">    -1</i>
   <i name="NELECT">      8.00000000</i>
   <i type="int" name="TURBO">     0</i>
   <i type="int" name="IRESTART">     0</i>
   <i type="int" name="NREBOOT">     0</i>
   <i type="int" name="NMIN">     0</i>
   <i name="EREF">      0.00000000</i>
   <separator name="electronic smearing" >
    <i type="int" name="ISMEAR">     0</i>
    <i name="SIGMA">      0.05000000</i>
    <i name="KSPACING">      0.50000000</i>
    <i type="logical" name="KGAMMA"> T  </i>
    <i type="logical" name="KBLOWUP"> T  </i>
   </separator>
   <separator name="electronic projectors" >
    <i type="logical" name="LREAL"> F  </i>
    <v name="ROPT">      0.00000000</v>
    <i type="int" name="LMAXPAW">  -100</i>
    <i type="int" name="LMAXMIX">     2</i>
    <i type="logical" name="NLSPLINE"> F  </i>
   </separator>
   <separator name="electronic startup" >
    <i type="int" name="ISTART">     1</i>
    <i type="int" name="ICHARG">    11</i>
    <i type="int" name="INIWAV">     1</i>
   </separator>
   <separator name="electronic spin" >
    <i type="int" name="ISPIN">     1</i>
    <i type="logical" name="LNONCOLLINEAR"> F  </i>
    <v name="MAGMOM">      1.00000000      1.00000000</v>
    <i name="NUPDOWN">     -1.00000000</i>
    <i type="logical" name="LSORBIT"> F  </i>
    <v name="SAXIS">      0.00000000      0.00000000      1.00000000</v>
    <i type="logical" name="LSPIRAL"> F  </i>
    <v name="QSPIRAL">      0.00000000      0.00000000      0.00000000</v>
    <i type="logical" name="LZEROZ"> F  </i>
   </separator>
   <separator name="electronic exchange-correlation" >
    <i type="logical" name="LASPH"> F  </i>
    <i type="logical" name="LMETAGGA"> F  </i>
   </separator>
   <separator name="electronic convergence" >
    <i type="int" name="NELM">   200</i>
    <i type="int" name="NELMDL">     0</i>
    <i type="int" name="NELMIN">     2</i>
    <i name="ENINI">    520.00000000</i>
    <separator name="electronic convergence detail" >
     <i type="logical" name="LDIAG"> T  </i>
     <i type="logical" name="LSUBROT"> F  </i>
     <i name="WEIMIN">      0.00000000</i>
     <i name="EBREAK">      0.00000003</i>
     <i name="DEPER">      0.30000000</i>
     <i type="int" name="NRMM">     4</i>
     <i name="TIME">      0.40000000</i>
    </separator>
   </separator>
   <separator name="electronic mixer" >
    <i name="AMIX">      0.40000000</i>
    <i name="BMIX">      1.00000000</i>
    <i name="AMIN">      0.10000000</i>
    <i name="AMIX_MAG">      1.60000000</i>
    <i name="BMIX_MAG">      1.00000000</i>
    <separator name="electronic mixer details" >
     <i type="int" name="IMIX">     4</i>
     <i type="logical" name="MIXFIRST"> F  </i>
     <i type="int" name="MAXMIX">   -45</i>
     <i name="WC">    100.00000000</i>
     <i type="int" name="INIMIX">     1</i>
     <i type="int" name="MIXPRE">     1</i>
     <i type="int" name="MREMOVE">     5</i>
    </separator>
   </separator>
   <separator name="electronic dipolcorrection" >
    <i type="logical" name="LDIPOL"> F  </i>
    <i type="logical" name="LMONO"> F  </i>
    <i type="int" name="IDIPOL">     0</i>
    <i name="EPSILON">      1.00000000</i>
    <v name="DIPOL">   -100.00000000   -100.00000000   -100.00000000</v>
    <i name="EFIELD">      0.00000000</i>
   </separator>
  </separator>
  <separator name="grids" >
   <i type="int" name="NGX">    18</i>
   <i type="int" name="NGY">    18</i>
   <i type="int" name="NGZ">    90</i>
   <i type="int" name="NGXF">    36</i>
   <i type="int" name="NGYF">    36</i>
   <i type="int" name="NGZF">   180</i>
   <i type="logical" name="ADDGRID"> F  </i>
  </separator>
  <separator name="ionic" >
   <i type="int" name="NSW">     0</i>
   <i type="int" name="IBRION">    -1</i>
   <i type="int" name="MDALGO">     0</i>
   <i type="int" name="ISIF">     3</i>
   <i name="PSTRESS">      0.00000000</i>
   <i name="EDIFFG">     -0.00001000</i>
   <i type="int" name="NFREE">     0</i>
   <i name="POTIM">      0.50000000</i>
   <i name="SMASS">     -3.00000000</i>
   <i name="SCALEE">      1.00000000</i>
  </separator>
  <separator name="ionic md" >
   <i name="TEBEG">      0.00010000</i>
   <i name="TEEND">      0.00010000</i>
   <i type="int" name="NBLOCK">     1</i>
   <i type="int" name="KBLOCK">     1</i>
   <i type="int" name="NPACO">   256</i>
   <i name="APACO">     10.00000000</i>
  </separator>
  <separator name="symmetry" >
   <i type="int" name="ISYM">     2</i>
   <i name="SYMPREC">      0.00001000</i>
  </separator>
  <separator name="dos" >
   <i type="int" name="LORBIT">     0</i>
   <v name="RWIGS">     -1.00000000</v>
   <i type="int" name="NEDOS">   301</i>
   <i name="EMIN">     10.00000000</i>
   <i name="EMAX">    -10.00000000</i>
   <i name="EFERMI">      0.00000000</i>
  </separator>
  <separator name="writing" >
   <i type="int" name="NWRITE">     2</i>
   <i type="logical" name="LWAVE"> F  </i>
   <i type="logical" name="LDOWNSAMPLE"> F  </i>
   <i type="logical" name="LCHARG"> F  </i>
   <i type="logical" name="LPARD"> F  </i>
   <i type="logical" name="LVTOT"> F  </i>
   <i type="logical" name="LVHAR"> F  </i>
   <i type="logical" name="LELF"> F  </i>
   <i type="logical" name="LOPTICS"> F  </i>
   <v name="STM">      0.00000000      0.00000000      0.00000000      0.00000000      0.00000000      0.00000000      0.00000000</v>
  </separator>
  <separator name="performance" >
   <i type="int" name="NPAR">     2</i>
   <i type="int" name="NSIM">     4</i>
   <i type="int" name="NBLK">    -1</i>
   <i type="logical" name="LPLANE"> T  </i>
   <i type="logical" name="LSCALAPACK"> T  </i>
   <i type="logical" name="LSCAAWARE"> F  </i>
   <i type="logical" name="LSCALU"> F  </i>
   <i type="logical" name="LASYNC"> F  </i>
   <i type="logical" name="LORBITALREAL"> F  </i>
  </separator>
  <separator name="miscellaneous" >
   <i type="int" name="IDIOT">     3</i>
   <i type="int" name="PHON_NSTRUCT">    -1</i>
   <i type="logical" name="LMUSIC"> F  </i>
   <v name="POMASS">     12.01100000</v>
   <v name="DARWINR">      0.00000000</v>
   <v name="DARWINV">      1.00000000</v>
   <i type="logical" name="LCORR"> T  </i>
  </separator>
  <i type="logical" name="GGA_COMPAT"> T  </i>
  <i type="logical" name="LBERRY"> F  </i>
  <i type="int" name="ICORELEVEL">     0</i>
  <i type="logical" name="LDAU"> F  </i>
  <i type="int" name="I_CONSTRAINED_M">     0</i>
  <separator name="electronic exchange-correlation" >
   <i type="string" name="GGA">--</i>
   <i type="int" name="VOSKOWN">     0</i>
   <i type="logical" name="LHFCALC"> F  </i>
   <i type="string" name="PRECFOCK"></i>
   <i type="logical" name="LSYMGRAD"> F  </i>
   <i type="logical" name="LHFONE"> F  </i>
   <i type="logical" name="LRHFCALC"> F  </i>
   <i type="logical" name="LTHOMAS"> F  </i>
   <i type="logical" name="LMODELHF"> F  </i>
   <i type="logical" name="LFOCKACE"> F  </i>
   <i name="ENCUT4O">     -1.00000000</i>
   <i type="int" name="EXXOEP">     0</i>
   <i type="int" name="FOURORBIT">     0</i>
   <i name="AEXX">      0.00000000</i>
   <i name="HFALPHA">      0.00000000</i>
   <i name="MCALPHA">      0.00000000</i>
   <i name="ALDAX">      1.00000000</i>
   <i name="AGGAX">      1.00000000</i>
   <i name="ALDAC">      1.00000000</i>
   <i name="AGGAC">      1.00000000</i>
   <i type="int" name="NKREDX">     1</i>
   <i type="int" name="NKREDY">     1</i>
   <i type="int" name="NKREDZ">     1</i>
   <i type="logical" name="SHIFTRED"> F  </i>
   <i type="logical" name="ODDONLY"> F  </i>
   <i type="logical" name="EVENONLY"> F  </i>
   <i type="int" name="LMAXFOCK">     0</i>
   <i type="int" name="NMAXFOCKAE">     0</i>
   <i type="logical" name="LFOCKAEDFT"> F  </i>
   <i name="HFSCREEN">      0.00000000</i>
   <i name="HFSCREENC">      0.00000000</i>
   <i type="int" name="NBANDSGWLOW">     0</i>
  </separator>
  <separator name="vdW DFT" >
   <i type="logical" name="LUSE_VDW"> F  </i>
   <i name="Zab_VDW">     -0.84910000</i>
   <i name="PARAM1">      0.12340000</i>
   <i name="PARAM2">      1.00000000</i>
   <i name="PARAM3">      0.00000000</i>
  </separator>
  <separator name="model GW" >
   <i type="int" name="MODEL_GW">     0</i>
   <i name="MODEL_EPS0">     18.99198397</i>
   <i name="MODEL_ALPHA">      1.00000000</i>
  </separator>
  <separator name="linear response parameters" >
   <i type="logical" name="LEPSILON"> F  </i>
   <i type="logical" name="LRPA"> F  </i>
   <i type="logical" name="LNABLA"> F  </i>
   <i type="logical" name="LVEL"> F  </i>
   <i name="CSHIFT">      0.10000000</i>
   <i name="OMEGAMAX">     -1.00000000</i>
   <i name="DEG_THRESHOLD">      0.00200000</i>
   <i name="RTIME">     -0.10000000</i>
   <i name="WPLASMAI">      0.00000000</i>
   <v name="DFIELD">      0.00000000      0.00000000      0.00000000</v>
   <v name="WPLASMA">      0.00000000      0.00000000      0.00000000      0.00000000      0.00000000      0.00000000      0.00000000      0.00000000      0.00000000</v>
  </separator>
  <separator name="orbital magnetization" >
   <i type="logical" name="NUCIND"> F  </i>
   <v name="MAGPOS">      0.00000000      0.00000000      0.00000000</v>
   <i type="logical" name="LNICSALL"> T  </i>
   <i type="logical" name="ORBITALMAG"> F  </i>
   <i type="logical" name="LMAGBLOCH"> F  </i>
   <i type="logical" name="LCHIMAG"> F  </i>
   <i type="logical" name="LGAUGE"> T  </i>
   <i type="int" name="MAGATOM">     0</i>
   <v name="MAGDIPOL">      0.00000000      0.00000000      0.00000000</v>
   <v name="AVECCONST">      0.00000000      0.00000000      0.00000000</v>
  </separator>
  <separator name="response functions" >
   <i type="logical" name="LFINITE_TEMPERATURE"> F  </i>
   <i type="logical" name="LADDER"> F  </i>
   <i type="logical" name="LRPAFORCE"> F  </i>
   <i type="logical" name="LFXC"> F  </i>
   <i type="logical" name="LHARTREE"> T  </i>
   <i type="int" name="IBSE">     0</i>
   <v type="int" name="KPOINT">    -1     0     0     0</v>
   <i type="logical" name="LTCTC"> F  </i>
   <i type="logical" name="LTCTE"> F  </i>
   <i type="logical" name="LTETE"> F  </i>
   <i type="logical" name="LTRIPLET"> F  </i>
   <i type="logical" name="LFXCEPS"> F  </i>
   <i type="logical" name="LFXHEG"> F  </i>
   <i type="int" name="NATURALO">     2</i>
   <i type="logical" name="LHOLEGF"> F  </i>
   <i type="logical" name="L2ORDER"> F  </i>
   <i type="logical" name="LDMP1"> F  </i>
   <i type="logical" name="LMP2LT"> F  </i>
   <i type="logical" name="LSMP2LT"> F  </i>
   <i type="logical" name="LGWLF"> F  </i>
   <i name="ENCUTGW">     -2.00000000</i>
   <i name="ENCUTGWSOFT">     -2.00000000</i>
   <i name="ENCUTLF">     -1.00000000</i>
   <i type="logical" name="LESF_SPLINES"> F  </i>
   <i type="int" name="LMAXMP2">    -1</i>
   <i name="SCISSOR">      0.00000000</i>
   <i type="int" name="NOMEGA">     0</i>
   <i type="int" name="NOMEGAR">     0</i>
   <i type="int" name="NBANDSGW">    -1</i>
   <i type="int" name="NBANDSO">    -1</i>
   <i type="int" name="NBANDSV">    -1</i>
   <i type="int" name="NELMGW">     1</i>
   <i type="int" name="NELMHF">     1</i>
   <i type="int" name="DIM">     3</i>
   <i type="int" name="IESPILON">     4</i>
   <i type="int" name="ANTIRES">     0</i>
   <i name="OMEGAMAX">    -30.00000000</i>
   <i name="OMEGAMIN">    -30.00000000</i>
   <i name="OMEGATL">   -200.00000000</i>
   <i type="int" name="OMEGAGRID">     0</i>
   <i name="CSHIFT">     -0.10000000</i>
   <i type="logical" name="LSELFENERGY"> F  </i>
   <i type="logical" name="LSPECTRAL"> F  </i>
   <i type="logical" name="LSPECTRALGW"> F  </i>
   <i type="logical" name="LSINGLES"> F  </i>
   <i type="logical" name="LFERMIGW"> F  </i>
   <i type="logical" name="ODDONLYGW"> F  </i>
   <i type="logical" name="EVENONLYGW"> F  </i>
   <i type="int" name="NKREDLFX">     1</i>
   <i type="int" name="NKREDLFY">     1</i>
   <i type="int" name="NKREDLFZ">     1</i>
   <i type="int" name="MAXMEM">  2800</i>
   <i type="int" name="TELESCOPE">     0</i>
   <i type="int" name="NTAUPAR">    -1</i>
   <i type="int" name="NOMEGAPAR">    -1</i>
   <i name="DAMP_NEWTON">      0.80000001</i>
   <i name="LAMBDA">      1.00000000</i>
  </separator>
  <separator name="External order field" >
   <i name="OFIELD_KAPPA">      0.00000000</i>
   <v name="OFIELD_K">      0.00000000      0.00000000      0.00000000</v>
   <i name="OFIELD_Q6_NEAR">      0.00000000</i>
   <i name="OFIELD_Q6_FAR">      0.00000000</i>
   <i name="OFIELD_A">      0.00000000</i>
  </separator>
  <separator name="optional k-points parameters" >
   <i type="int" name="KPOINTS_OPT_MODE">     1</i>
   <i type="logical" name="LKPOINTS_OPT"> F  </i>
  </separator>
 </parameters>
 <atominfo>
  <atoms>       2 </atoms>
  <types>       1 </types>
  <array name="atoms" >
   <dimension dim="1">ion</dimension>
   <field type="string">element</field>
   <field type="int">atomtype</field>
   <set>
    <rc><c>C </c><c>   1</c></rc>
    <rc><c>C </c><c>   1</c></rc>
   </set>
  </array>
  <array name="atomtypes" >
   <dimension dim="1">type</dimension>
   <field type="int">atomspertype</field>
   <field type="string">element</field>
   <field>mass</field>
   <field>valence</field>
   <field type="string">pseudopotential</field>
   <set>
    <rc><c>   2</c><c>C </c><c>     12.01100000</c><c>      4.00000000</c><c>  PAW_PBE C 08Apr2002                   </c></rc>
   </set>
  </array>
 </atominfo>
 <structure name="initialpos" >
  <crystal>
   <varray name="basis" >
    <v>       2.46813324       0.00000000       0.00000000 </v>
    <v>       1.23406662       2.13746609       0.00000000 </v>
    <v>       0.00000000       0.00000000      12.00000000 </v>
   </varray>
   <i name="volume">     63.30661323 </i>
   <varray name="rec_basis" >
    <v>       0.40516451      -0.23392184       0.00000000 </v>
    <v>       0.00000000       0.46784368       0.00000000 </v>
    <v>       0.00000000       0.00000000       0.08333333 </v>
   </varray>
  </crystal>
  <varray name="positions" >
   <v>       0.00000000       0.00000000       0.50000000 </v>
   <v>       0.33333334       0.33333334       0.50000000 </v>
  </varray>
 </structure>
 <calculation>
  <scstep>
   <time name="dav">    0.28    0.29</time>
   <time name="total">    0.29    0.32</time>
   <energy>
    <i name="alphaZ">      5.19040345 </i>
    <i name="ewald">    560.32934460 </i>
    <i name="hartreedc">   -817.36188127 </i>
    <i name="XCdc">     27.52791154 </i>
    <i name="pawpsdc">    831.56450662 </i>
    <i name="pawaedc">   -832.93124065 </i>
    <i name="eentropy">     -0.00056967 </i>
    <i name="bandstr">    -85.18853390 </i>
    <i name="atom">    294.29778662 </i>
    <i name="e_fr_energy">    -16.57227266 </i>
    <i name="e_wo_entrp">    -16.57170298 </i>
    <i name="e_0_energy">    -16.57198782 </i>
   </energy>
  </scstep>
  <scstep>
   <time name="dav">    0.32    0.33</time>
   <time name="total">    0.32    0.33</time>
   <energy>
    <i name="e_fr_energy">    -17.29366904 </i>
    <i name="e_wo_entrp">    -17.29178842 </i>
    <i name="e_0_energy">    -17.29272873 </i>
   </energy>
  </scstep>
  <scstep>
   <time name="dav">    0.34    0.34</time>
   <time name="total">    0.34    0.34</time>
   <energy>
    <i name="e_fr_energy">    -17.29682253 </i>
    <i name="e_wo_entrp">    -17.29494190 </i>
    <i name="e_0_energy">    -17.29588221 </i>
   </energy>
  </scstep>
  <scstep>
   <time name="dav">    0.35    0.35</time>
   <time name="total">    0.35    0.35</time>
   <energy>
    <i name="e_fr_energy">    -17.29683261 </i>
    <i name="e_wo_entrp">    -17.29495198 </i>
    <i name="e_0_energy">    -17.29589230 </i>
   </energy>
  </scstep>
  <scstep>
   <time name="dav">    0.33    0.33</time>
   <time name="total">    0.33    0.33</time>
   <energy>
    <i name="alphaZ">      5.19040345 </i>
    <i name="ewald">    560.32934460 </i>
    <i name="hartreedc">   -817.36188127 </i>
    <i name="XCdc">     27.52791154 </i>
    <i name="pawpsdc">    831.56450662 </i>
    <i name="pawaedc">   -832.93124065 </i>
    <i name="eentropy">     -0.00188063 </i>
    <i name="bandstr">    -85.91178299 </i>
    <i name="atom">    294.29778662 </i>
    <i name="e_fr_energy">    -17.29683270 </i>
    <i name="e_wo_entrp">    -17.29495207 </i>
    <i name="e_0_energy">    -17.29589239 </i>
   </energy>
  </scstep>
  <structure>
   <crystal>
    <varray name="basis" >
     <v>       2.46813324       0.00000000       0.00000000 </v>
     <v>       1.23406662       2.13746609       0.00000000 </v>
     <v>       0.00000000       0.00000000      12.00000000 </v>
    </varray>
    <i name="volume">     63.30661323 </i>
    <varray name="rec_basis" >
     <v>       0.40516451      -0.23392184       0.00000000 </v>
     <v>       0.00000000       0.46784368       0.00000000 </v>
     <v>       0.00000000       0.00000000       0.08333333 </v>
    </varray>
   </crystal>
   <varray name="positions" >
    <v>       0.00000000       0.00000000       0.50000000 </v>
    <v>       0.33333334       0.33333334       0.50000000 </v>
   </varray>
  </structure>
  <varray name="forces" >
   <v>      -0.00000000       0.00000000       0.00000000 </v>
   <v>       0.00000000      -0.00000000       0.00000000 </v>
  </varray>
  <varray name="stress" >
   <v>      40.66040536      -0.00000000       0.00000000 </v>
   <v>      -0.00000000      40.66040536      -0.00000000 </v>
   <v>      -0.00000000       0.00000000      20.76357357 </v>
  </varray>
  <energy>
   <i name="e_fr_energy">    -17.29683270 </i>
   <i name="e_wo_entrp">    -17.29495207 </i>
   <i name="e_0_energy">    -17.29589239 </i>
  </energy>
  <time name="totalsc">    1.76    1.84</time>
  <eigenvalues>
   <array>
    <dimension dim="1">band</dimension>
    <dimension dim="2">kpoint</dimension>
    <dimension dim="3">spin</dimension>
    <field>eigene</field>
    <field>occ</field>
    <set>
     <set comment="spin 1">
      <set comment="kpoint 1">
       <r>  -21.2497    1.0000 </r>
       <r>   -9.3553    1.0000 </r>
       <r>   -4.7873    1.0000 </r>
       <r>   -4.7873    1.0000 </r>
       <r>    1.4632    0.0000 </r>
       <r>    2.6052    0.0000 </r>
       <r>    3.4587    0.0000 </r>
       <r>    6.5868    0.0000 </r>
      </set>
      <set comment="kpoint 2">
       <r>  -21.2333    1.0000 </r>
       <r>   -9.3358    1.0000 </r>
       <r>   -4.8554    1.0000 </r>
       <r>   -4.8232    1.0000 </r>
       <r>    1.4854    0.0000 </r>
       <r>    2.6275    0.0000 </r>
       <r>    3.4810    0.0000 </r>
       <r>    6.6085    0.0000 </r>
      </set>
      <set comment="kpoint 3">
       <r>  -21.1843    1.0000 </r>
       <r>   -9.2773    1.0000 </r>
       <r>   -5.0551    1.0000 </r>
       <r>   -4.9277    1.0000 </r>
       <r>    1.5521    0.0000 </r>
       <r>    2.6942    0.0000 </r>
       <r>    3.5480    0.0000 </r>
       <r>    6.5795    0.0000 </r>
      </set>
      <set comment="kpoint 4">
       <r>  -21.1026    1.0000 </r>
       <r>   -9.1800    1.0000 </r>
       <r>   -5.3745    1.0000 </r>
       <r>   -5.0923    1.0000 </r>
       <r>    1.6632    0.0000 </r>
       <r>    2.8053    0.0000 </r>
       <r>    3.6596    0.0000 </r>
       <r>    6.6041    0.0000 </r>
      </set>
      <set comment="kpoint 5">
       <r>  -20.9884    1.0000 </r>
       <r>   -9.0441    1.0000 </r>
       <r>   -5.7964    1.0000 </r>
       <r>   -5.3050    1.0000 </r>
       <r>    1.8187    0.0000 </r>
       <r>    2.9608    0.0000 </r>
       <r>    3.8159    0.0000 </r>
       <r>    6.6167    0.0000 </r>
      </set>
      <set comment="kpoint 6">
       <r>  -20.8418    1.0000 </r>
       <r>   -8.8699    1.0000 </r>
       <r>   -6.3022    1.0000 </r>
       <r>   -5.5526    1.0000 </r>
       <r>    2.0187    0.0000 </r>
       <r>    3.1605    0.0000 </r>
       <r>    4.0169    0.0000 </r>
       <r>    6.6061    0.0000 </r>
      </set>
      <set comment="kpoint 7">
       <r>  -20.6629    1.0000 </r>
       <r>   -8.6581    1.0000 </r>
       <r>   -6.8735    1.0000 </r>
       <r>   -5.8222    1.0000 </r>
       <r>    2.2630    0.0000 </r>
       <r>    3.4041    0.0000 </r>
       <r>    4.2625    0.0000 </r>
       <r>    6.5683    0.0000 </r>
      </set>
      <set comment="kpoint 8">
       <r>  -20.4519    1.0000 </r>
       <r>   -8.4093    1.0000 </r>
       <r>   -7.4938    1.0000 </r>
       <r>   -6.1025    1.0000 </r>
       <r>    2.5517    0.0000 </r>
       <r>    3.6910    0.0000 </r>
       <r>    4.5524    0.0000 </r>
       <r>    6.5051    0.0000 </r>
      </set>
      <set comment="kpoint 9">
       <r>  -20.2091    1.0000 </r>
       <r>   -8.1491    1.0000 </r>
       <r>   -8.1244    1.0000 </r>
       <r>   -6.3841    1.0000 </r>
       <r>    2.8845    0.0000 </r>
       <r>    4.0200    0.0000 </r>
       <r>    4.8863    0.0000 </r>
       <r>    6.4223    0.0000 </r>
      </set>
      <set comment="kpoint 10">
       <r>  -19.9350    1.0000 </r>
       <r>   -8.8275    1.0000 </r>
       <r>   -7.8047    1.0000 </r>
       <r>   -6.6590    1.0000 </r>
       <r>    3.2612    0.0000 </r>
       <r>    4.4589    0.0000 </r>
       <r>    5.2628    0.0000 </r>
       <r>    5.8392    0.0000 </r>
      </set>
      <set comment="kpoint 11">
       <r>  -19.6297    1.0000 </r>
       <r>   -9.5195    1.0000 </r>
       <r>   -7.4518    1.0000 </r>
       <r>   -6.9212    1.0000 </r>
       <r>    3.6817    0.0000 </r>
       <r>    4.7305    0.0000 </r>
       <r>    5.2019    0.0000 </r>
       <r>    5.6759    0.0000 </r>
      </set>
      <set comment="kpoint 12">
       <r>  -19.2940    1.0000 </r>
       <r>  -10.2167    1.0000 </r>
       <r>   -7.1655    1.0000 </r>
       <r>   -7.0680    1.0000 </r>
       <r>    4.1454    0.0000 </r>
       <r>    4.3310    0.0000 </r>
       <r>    5.3369    0.0000 </r>
       <r>    6.0190    0.0000 </r>
      </set>
      <set comment="kpoint 13">
       <r>  -18.9284    1.0000 </r>
       <r>  -10.9127    1.0000 </r>
       <r>   -7.3882    1.0000 </r>
       <r>   -6.6566    1.0000 </r>
       <r>    3.6191    0.0000 </r>
       <r>    4.6511    0.0000 </r>
       <r>    5.8221    0.0000 </r>
       <r>    5.9846    0.0000 </r>
      </set>
      <set comment="kpoint 14">
       <r>  -18.5339    1.0000 </r>
       <r>  -11.6017    1.0000 </r>
       <r>   -7.5862    1.0000 </r>
       <r>   -6.2223    1.0000 </r>
       <r>    2.8981    0.0000 </r>
       <r>    5.1941    0.0000 </r>
       <r>    5.9059    0.0000 </r>
       <r>    6.3653    0.0000 </r>
      </set>
      <set comment="kpoint 15">
       <r>  -18.1118    1.0000 </r>
       <r>  -12.2785    1.0000 </r>
       <r>   -7.7571    1.0000 </r>
       <r>   -5.7725    1.0000 </r>
       <r>    2.1937    0.0000 </r>
       <r>    5.6909    0.0000 </r>
       <r>    5.9210    0.0000 </r>
       <r>    6.9533    0.0000 </r>
      </set>
      <set comment="kpoint 16">
       <r>  -17.6643    1.0000 </r>
       <r>  -12.9379    1.0000 </r>
       <r>   -7.8992    1.0000 </r>
       <r>   -5.3192    1.0000 </r>
       <r>    1.5247    0.0000 </r>
       <r>    5.7140    0.0000 </r>
       <r>    6.4633    0.0000 </r>
       <r>    7.5831    0.0000 </r>
      </set>
      <set comment="kpoint 17">
       <r>  -17.1957    1.0000 </r>
       <r>  -13.5737    1.0000 </r>
       <r>   -8.0109    1.0000 </r>
       <r>   -4.8823    1.0000 </r>
       <r>    0.9158    0.0000 </r>
       <r>    5.6651    0.0000 </r>
       <r>    7.1327    0.0000 </r>
       <r>    8.2522    0.0000 </r>
      </set>
      <set comment="kpoint 18">
       <r>  -16.7165    1.0000 </r>
       <r>  -14.1734    1.0000 </r>
       <r>   -8.0915    1.0000 </r>
       <r>   -4.4964    1.0000 </r>
       <r>    0.4048    0.0000 </r>
       <r>    5.6257    0.0000 </r>
       <r>    7.8479    0.0000 </r>
       <r>    8.9575    0.0000 </r>
      </set>
      <set comment="kpoint 19">
       <r>  -16.2640    1.0000 </r>
       <r>  -14.6987    1.0000 </r>
       <r>   -8.1400    1.0000 </r>
       <r>   -4.2171    1.0000 </r>
       <r>    0.0495    0.0000 </r>
       <r>    5.6012    0.0000 </r>
       <r>    8.6020    0.0000 </r>
       <r>    9.6919    0.0000 </r>
      </set>
      <set comment="kpoint 20">
       <r>  -16.0195    1.0000 </r>
       <r>  -14.9675    1.0000 </r>
       <r>   -8.1563    1.0000 </r>
       <r>   -4.1124    1.0000 </r>
       <r>   -0.0806    0.0000 </r>
       <r>    5.5929    0.0000 </r>
       <r>    9.3235    0.0000 </r>
       <r>    9.4703    0.0000 </r>
      </set>
      <set comment="kpoint 21">
       <r>  -16.0195    1.0000 </r>
       <r>  -14.9675    1.0000 </r>
       <r>   -8.1563    1.0000 </r>
       <r>   -4.1124    1.0000 </r>
       <r>   -0.0806    0.0000 </r>
       <r>    5.5929    0.0000 </r>
       <r>    9.3235    0.0000 </r>
       <r>    9.4703    0.0000 </r>
      </set>
      <set comment="kpoint 22">
       <r>  -16.0148    1.0000 </r>
       <r>  -14.9629    1.0000 </r>
       <r>   -8.1809    1.0000 </r>
       <r>   -4.1058    1.0000 </r>
       <r>   -0.0822    0.0000 </r>
       <r>    5.6262    0.0000 </r>
       <r>    9.3300    0.0000 </r>
       <r>    9.4772    0.0000 </r>
      </set>
      <set comment="kpoint 23">
       <r>  -16.0008    1.0000 </r>
       <r>  -14.9490    1.0000 </r>
       <r>   -8.2541    1.0000 </r>
       <r>   -4.0859    1.0000 </r>
       <r>   -0.0870    0.0000 </r>
       <r>    5.7253    0.0000 </r>
       <r>    9.3493    0.0000 </r>
       <r>    9.4978    0.0000 </r>
      </set>
      <set comment="kpoint 24">
       <r>  -15.9774    1.0000 </r>
       <r>  -14.9261    1.0000 </r>
       <r>   -8.3735    1.0000 </r>
       <r>   -4.0528    1.0000 </r>
       <r>   -0.0955    0.0000 </r>
       <r>    5.8876    0.0000 </r>
       <r>    9.3815    0.0000 </r>
       <r>    9.5320    0.0000 </r>
      </set>
      <set comment="kpoint 25">
       <r>  -15.9447    1.0000 </r>
       <r>  -14.8941    1.0000 </r>
       <r>   -8.5354    1.0000 </r>
       <r>   -4.0064    1.0000 </r>
       <r>   -0.1082    0.0000 </r>
       <r>    6.1093    0.0000 </r>
       <r>    9.4263    0.0000 </r>
       <r>    9.5798    0.0000 </r>
      </set>
      <set comment="kpoint 26">
       <r>  -15.9026    1.0000 </r>
       <r>  -14.8533    1.0000 </r>
       <r>   -8.7355    1.0000 </r>
       <r>   -3.9469    1.0000 </r>
       <r>   -0.1262    0.0000 </r>
       <r>    6.3854    0.0000 </r>
       <r>    9.4837    0.0000 </r>
       <r>    9.6412    0.0000 </r>
      </set>
      <set comment="kpoint 27">
       <r>  -15.8512    1.0000 </r>
       <r>  -14.8039    1.0000 </r>
       <r>   -8.9686    1.0000 </r>
       <r>   -3.8742    1.0000 </r>
       <r>   -0.1506    0.0000 </r>
       <r>    6.7102    0.0000 </r>
       <r>    9.5534    0.0000 </r>
       <r>    9.7159    0.0000 </r>
      </set>
      <set comment="kpoint 28">
       <r>  -15.7904    1.0000 </r>
       <r>  -14.7464    1.0000 </r>
       <r>   -9.2296    1.0000 </r>
       <r>   -3.7883    1.0000 </r>
       <r>   -0.1828    0.0000 </r>
       <r>    7.0777    0.0000 </r>
       <r>    9.6350    0.0000 </r>
       <r>    9.8038    0.0000 </r>
      </set>
      <set comment="kpoint 29">
       <r>  -15.7203    1.0000 </r>
       <r>  -14.6812    1.0000 </r>
       <r>   -9.5130    1.0000 </r>
       <r>   -3.6893    1.0000 </r>
       <r>   -0.2245    0.0000 </r>
       <r>    7.4816    0.0000 </r>
       <r>    9.7369    0.0000 </r>
       <r>   10.0486    0.0000 </r>
      </set>
      <set comment="kpoint 30">
       <r>  -15.6409    1.0000 </r>
       <r>  -14.6092    1.0000 </r>
       <r>   -9.8140    1.0000 </r>
       <r>   -3.5774    1.0000 </r>
       <r>   -0.2774    0.0000 </r>
       <r>    7.9150    0.0000 </r>
       <r>    9.8371    0.0000 </r>
       <r>    9.9293    0.0000 </r>
      </set>
      <set comment="kpoint 31">
       <r>  -15.5522    1.0000 </r>
       <r>  -14.5313    1.0000 </r>
       <r>  -10.1273    1.0000 </r>
       <r>   -3.4524    1.0000 </r>
       <r>   -0.3434    0.0000 </r>
       <r>    8.3711    0.0000 </r>
       <r>    9.7893    0.0000 </r>
       <r>    9.9473    0.0000 </r>
      </set>
      <set comment="kpoint 32">
       <r>  -15.4542    1.0000 </r>
       <r>  -14.4490    1.0000 </r>
       <r>  -10.4480    1.0000 </r>
       <r>   -3.3145    1.0000 </r>
       <r>   -0.4245    0.0000 </r>
       <r>    8.8417    0.0000 </r>
       <r>    9.6361    0.0000 </r>
       <r>   10.0707    0.0000 </r>
      </set>
      <set comment="kpoint 33">
       <r>  -15.3470    1.0000 </r>
       <r>  -14.3646    1.0000 </r>
       <r>  -10.7708    1.0000 </r>
       <r>   -3.1638    1.0000 </r>
       <r>   -0.5224    0.0000 </r>
       <r>    9.3178    0.0000 </r>
       <r>    9.4791    0.0000 </r>
       <r>   10.2009    0.0000 </r>
      </set>
      <set comment="kpoint 34">
       <r>  -15.2305    1.0000 </r>
       <r>  -14.2815    1.0000 </r>
       <r>  -11.0895    1.0000 </r>
       <r>   -3.0003    1.0000 </r>
       <r>   -0.6388    0.0000 </r>
       <r>    9.3274    0.0000 </r>
       <r>    9.7843    0.0000 </r>
       <r>   10.3400    0.0000 </r>
      </set>
      <set comment="kpoint 35">
       <r>  -15.1048    1.0000 </r>
       <r>  -14.2049    1.0000 </r>
       <r>  -11.3966    1.0000 </r>
       <r>   -2.8242    1.0000 </r>
       <r>   -0.7748    0.0000 </r>
       <r>    9.1891    0.0000 </r>
       <r>   10.2487    0.0000 </r>
       <r>   10.5018    0.0000 </r>
      </set>
      <set comment="kpoint 36">
       <r>  -14.9698    1.0000 </r>
       <r>  -14.1435    1.0000 </r>
       <r>  -11.6817    1.0000 </r>
       <r>   -2.6355    1.0000 </r>
       <r>   -0.9314    0.0000 </r>
       <r>    9.0707    0.0000 </r>
       <r>   10.5879    0.0000 </r>
       <r>   10.6341    0.0000 </r>
      </set>
      <set comment="kpoint 37">
       <r>  -14.8258    1.0000 </r>
       <r>  -14.1099    1.0000 </r>
       <r>  -11.9304    1.0000 </r>
       <r>   -2.4344    1.0000 </r>
       <r>   -1.1086    0.0000 </r>
       <r>    8.9766    0.0000 </r>
       <r>   10.7674    0.0000 </r>
       <r>   10.8487    0.0000 </r>
      </set>
      <set comment="kpoint 38">
       <r>  -14.6725    1.0000 </r>
       <r>  -14.1216    1.0000 </r>
       <r>  -12.1239    1.0000 </r>
       <r>   -2.2211    1.0000 </r>
       <r>   -1.3062    0.0000 </r>
       <r>    8.9094    0.0000 </r>
       <r>   10.8954    0.0000 </r>
       <r>   11.0209    0.0000 </r>
      </set>
      <set comment="kpoint 39">
       <r>  -14.5102    1.0000 </r>
       <r>  -14.1957    1.0000 </r>
       <r>  -12.2439    1.0000 </r>
       <r>   -1.9956    1.0000 </r>
       <r>   -1.5231    0.0000 </r>
       <r>    8.8699    0.0000 </r>
       <r>   11.0131    0.0000 </r>
       <r>   11.1204    0.0000 </r>
      </set>
      <set comment="kpoint 40">
       <r>  -14.3389    1.0000 </r>
       <r>  -14.3389    1.0000 </r>
       <r>  -12.2828    1.0000 </r>
       <r>   -1.7581    0.5000 </r>
       <r>   -1.7581    0.5000 </r>
       <r>    8.8573    0.0000 </r>
       <r>   11.1062    0.0000 </r>
       <r>   11.1161    0.0000 </r>
      </set>
      <set comment="kpoint 41">
       <r>  -14.3389    1.0000 </r>
       <r>  -14.3389    1.0000 </r>
       <r>  -12.2828    1.0000 </r>
       <r>   -1.7581    0.5000 </r>
       <r>   -1.7581    0.5000 </r>
       <r>    8.8573    0.0000 </r>
       <r>   11.1062    0.0000 </r>
       <r>   11.1161    0.0000 </r>
      </set>
      <set comment="kpoint 42">
       <r>  -14.7889    1.0000 </r>
       <r>  -13.9692    1.0000 </r>
       <r>  -12.1582    1.0000 </r>
       <r>   -2.2744    1.0000 </r>
       <r>   -1.2481    0.0000 </r>
       <r>    8.8991    0.0000 </r>
       <r>   10.6221    0.0000 </r>
       <r>   11.2284    0.0000 </r>
      </set>
      <set comment="kpoint 43">
       <r>  -15.3512    1.0000 </r>
       <r>  -13.5641    1.0000 </r>
       <r>  -11.8660    1.0000 </r>
       <r>   -2.8379    1.0000 </r>
       <r>   -0.6926    0.0000 </r>
       <r>    8.9806    0.0000 </r>
       <r>    9.8061    0.0000 </r>
       <r>   11.2253    0.0000 </r>
      </set>
      <set comment="kpoint 44">
       <r>  -15.9463    1.0000 </r>
       <r>  -13.1243    1.0000 </r>
       <r>  -11.4832    1.0000 </r>
       <r>   -3.4304    1.0000 </r>
       <r>   -0.0940    0.0000 </r>
       <r>    8.9255    0.0000 </r>
       <r>    8.9712    0.0000 </r>
       <r>   10.9888    0.0000 </r>
      </set>
      <set comment="kpoint 45">
       <r>  -16.5391    1.0000 </r>
       <r>  -12.6506    1.0000 </r>
       <r>  -11.0441    1.0000 </r>
       <r>   -4.0353    1.0000 </r>
       <r>    0.5453    0.0000 </r>
       <r>    8.0577    0.0000 </r>
       <r>    8.6786    0.0000 </r>
       <r>   10.1118    0.0000 </r>
      </set>
      <set comment="kpoint 46">
       <r>  -17.1133    1.0000 </r>
       <r>  -12.1440    1.0000 </r>
       <r>  -10.5651    1.0000 </r>
       <r>   -4.6383    1.0000 </r>
       <r>    1.2220    0.0000 </r>
       <r>    7.2275    0.0000 </r>
       <r>    8.1153    0.0000 </r>
       <r>    9.2737    0.0000 </r>
      </set>
      <set comment="kpoint 47">
       <r>  -17.6606    1.0000 </r>
       <r>  -11.6061    1.0000 </r>
       <r>  -10.0566    1.0000 </r>
       <r>   -5.2280    1.0000 </r>
       <r>    1.9321    0.0000 </r>
       <r>    6.4450    0.0000 </r>
       <r>    7.4506    0.0000 </r>
       <r>    8.4821    0.0000 </r>
      </set>
      <set comment="kpoint 48">
       <r>  -18.1758    1.0000 </r>
       <r>  -11.0389    1.0000 </r>
       <r>   -9.5264    1.0000 </r>
       <r>   -5.7953    1.0000 </r>
       <r>    2.6707    0.0000 </r>
       <r>    5.7151    0.0000 </r>
       <r>    6.7789    0.0000 </r>
       <r>    7.7439    0.0000 </r>
      </set>
      <set comment="kpoint 49">
       <r>  -18.6559    1.0000 </r>
       <r>  -10.4449    1.0000 </r>
       <r>   -8.9819    1.0000 </r>
       <r>   -6.3332    1.0000 </r>
       <r>    3.4316    0.0000 </r>
       <r>    5.0403    0.0000 </r>
       <r>    6.1360    0.0000 </r>
       <r>    7.0620    0.0000 </r>
      </set>
      <set comment="kpoint 50">
       <r>  -19.0986    1.0000 </r>
       <r>   -9.8275    1.0000 </r>
       <r>   -8.4306    1.0000 </r>
       <r>   -6.8363    1.0000 </r>
       <r>    4.2073    0.0000 </r>
       <r>    4.4220    0.0000 </r>
       <r>    5.5365    0.0000 </r>
       <r>    6.4380    0.0000 </r>
      </set>
      <set comment="kpoint 51">
       <r>  -19.5021    1.0000 </r>
       <r>   -9.1913    1.0000 </r>
       <r>   -7.8810    1.0000 </r>
       <r>   -7.3002    1.0000 </r>
       <r>    3.8613    0.0000 </r>
       <r>    4.9872    0.0000 </r>
       <r>    4.9884    0.0000 </r>
       <r>    5.8725    0.0000 </r>
      </set>
      <set comment="kpoint 52">
       <r>  -19.8655    1.0000 </r>
       <r>   -8.5425    1.0000 </r>
       <r>   -7.7218    1.0000 </r>
       <r>   -7.3424    1.0000 </r>
       <r>    3.3588    0.0000 </r>
       <r>    4.4918    0.0000 </r>
       <r>    5.3660    0.0000 </r>
       <r>    5.7633    0.0000 </r>
      </set>
      <set comment="kpoint 53">
       <r>  -20.1877    1.0000 </r>
       <r>   -8.0984    1.0000 </r>
       <r>   -7.8896    1.0000 </r>
       <r>   -6.8252    1.0000 </r>
       <r>    2.9149    0.0000 </r>
       <r>    4.0522    0.0000 </r>
       <r>    4.9189    0.0000 </r>
       <r>    6.5177    0.0000 </r>
      </set>
      <set comment="kpoint 54">
       <r>  -20.4681    1.0000 </r>
       <r>   -8.4281    1.0000 </r>
       <r>   -7.2441    1.0000 </r>
       <r>   -6.3409    1.0000 </r>
       <r>    2.5299    0.0000 </r>
       <r>    3.6698    0.0000 </r>
       <r>    4.5313    0.0000 </r>
       <r>    7.1452    0.0000 </r>
      </set>
      <set comment="kpoint 55">
       <r>  -20.7062    1.0000 </r>
       <r>   -8.7093    1.0000 </r>
       <r>   -6.6217    1.0000 </r>
       <r>   -5.9018    1.0000 </r>
       <r>    2.2040    0.0000 </r>
       <r>    3.3453    0.0000 </r>
       <r>    4.2034    0.0000 </r>
       <r>    6.9429    0.0000 </r>
      </set>
      <set comment="kpoint 56">
       <r>  -20.9015    1.0000 </r>
       <r>   -8.9408    1.0000 </r>
       <r>   -6.0436    1.0000 </r>
       <r>   -5.5204    1.0000 </r>
       <r>    1.9373    0.0000 </r>
       <r>    3.0792    0.0000 </r>
       <r>    3.9352    0.0000 </r>
       <r>    6.7875    0.0000 </r>
      </set>
      <set comment="kpoint 57">
       <r>  -21.0537    1.0000 </r>
       <r>   -9.1217    1.0000 </r>
       <r>   -5.5376    1.0000 </r>
       <r>   -5.2088    1.0000 </r>
       <r>    1.7299    0.0000 </r>
       <r>    2.8720    0.0000 </r>
       <r>    3.7266    0.0000 </r>
       <r>    6.6753    0.0000 </r>
      </set>
      <set comment="kpoint 58">
       <r>  -21.1625    1.0000 </r>
       <r>   -9.2513    1.0000 </r>
       <r>   -5.1372    1.0000 </r>
       <r>   -4.9777    1.0000 </r>
       <r>    1.5817    0.0000 </r>
       <r>    2.7238    0.0000 </r>
       <r>    3.5778    0.0000 </r>
       <r>    6.6012    0.0000 </r>
      </set>
      <set comment="kpoint 59">
       <r>  -21.2279    1.0000 </r>
       <r>   -9.3293    1.0000 </r>
       <r>   -4.8776    1.0000 </r>
       <r>   -4.8354    1.0000 </r>
       <r>    1.4929    0.0000 </r>
       <r>    2.6349    0.0000 </r>
       <r>    3.4884    0.0000 </r>
       <r>    6.5602    0.0000 </r>
      </set>
      <set comment="kpoint 60">
       <r>  -21.2497    1.0000 </r>
       <r>   -9.3553    1.0000 </r>
       <r>   -4.7873    1.0000 </r>
       <r>   -4.7873    1.0000 </r>
       <r>    1.4632    0.0000 </r>
       <r>    2.6052    0.0000 </r>
       <r>    3.4587    0.0000 </r>
       <r>    6.5464    0.0000 </r>
      </set>
     </set>
    </set>
   </array>
  </eigenvalues>
  <separator name="orbital magnetization" >
   <v name="MAGDIPOLOUT">      0.00000000      0.00000000      0.00000000</v>
  </separator>
  <dos>
   <i name="efermi">     -1.75812436 </i>
   <total>
    <array>
     <dimension dim="1">gridpoints</dimension>
     <dimension dim="2">spin</dimension>
     <field>energy</field>
     <field>total</field>
     <field>integrated</field>
     <set>
      <set comment="spin 1">
       <r>   -22.8736     0.0000     0.0000 </r>
       <r>   -22.7545     0.0000     0.0000 </r>
       <r>   -22.6354     0.0000     0.0000 </r>
       <r>   -22.5163     0.0000     0.0000 </r>
       <r>   -22.3972     0.0000     0.0000 </r>
       <r>   -22.2781     0.0000     0.0000 </r>
       <r>   -22.1590     0.0000     0.0000 </r>
       <r>   -22.0400     0.0000     0.0000 </r>
       <r>   -21.9209     0.0000     0.0000 </r>
       <r>   -21.8018     0.0000     0.0000 </r>
       <r>   -21.6827     0.0000     0.0000 </r>
       <r>   -21.5636     0.0000     0.0000 </r>
       <r>   -21.4445     0.0000     0.0000 </r>
       <r>   -21.3254     0.0111     0.0013 </r>
       <r>   -21.2064     1.0135     0.1220 </r>
       <r>   -21.0873     0.8849     0.2274 </r>
       <r>   -20.9682     0.5364     0.2913 </r>
       <r>   -20.8491     0.4508     0.3450 </r>
       <r>   -20.7300     0.2602     0.3759 </r>
       <r>   -20.6109     0.4611     0.4309 </r>
       <r>   -20.4918     0.1273     0.4460 </r>
       <r>   -20.3727     0.4489     0.4995 </r>
       <r>   -20.2537     0.0423     0.5045 </r>
       <r>   -20.1346     0.4985     0.5639 </r>
       <r>   -20.0155     0.0267     0.5670 </r>
       <r>   -19.8964     0.2916     0.6018 </r>
       <r>   -19.7773     0.2633     0.6331 </r>
       <r>   -19.6582     0.0606     0.6403 </r>
       <r>   -19.5391     0.2610     0.6714 </r>
       <r>   -19.4201     0.2372     0.6997 </r>
       <r>   -19.3010     0.1210     0.7141 </r>
       <r>   -19.1819     0.1641     0.7336 </r>
       <r>   -19.0628     0.2339     0.7615 </r>
       <r>   -18.9437     0.1368     0.7778 </r>
       <r>   -18.8246     0.1862     0.7999 </r>
       <r>   -18.7055     0.0229     0.8027 </r>
       <r>   -18.5865     0.2698     0.8348 </r>
       <r>   -18.4674     0.2592     0.8657 </r>
       <r>   -18.3483     0.0084     0.8667 </r>
       <r>   -18.2292     0.0185     0.8689 </r>
       <r>   -18.1101     0.3979     0.9163 </r>
       <r>   -17.9910     0.1433     0.9333 </r>
       <r>   -17.8719     0.0001     0.9333 </r>
       <r>   -17.7529     0.0030     0.9337 </r>
       <r>   -17.6338     0.4400     0.9861 </r>
       <r>   -17.5147     0.1168     1.0000 </r>
       <r>   -17.3956     0.0000     1.0000 </r>
       <r>   -17.2765     0.0031     1.0004 </r>
       <r>   -17.1574     0.2675     1.0322 </r>
       <r>   -17.0383     0.2845     1.0661 </r>
       <r>   -16.9192     0.0047     1.0667 </r>
       <r>   -16.8002     0.0025     1.0670 </r>
       <r>   -16.6811     0.2332     1.0947 </r>
       <r>   -16.5620     0.1166     1.1086 </r>
       <r>   -16.4429     0.2066     1.1332 </r>
       <r>   -16.3238     0.0136     1.1348 </r>
       <r>   -16.2047     0.2541     1.1651 </r>
       <r>   -16.0856     0.0393     1.1698 </r>
       <r>   -15.9666     1.3235     1.3274 </r>
       <r>   -15.8475     1.0381     1.4510 </r>
       <r>   -15.7284     0.5168     1.5126 </r>
       <r>   -15.6093     0.4171     1.5622 </r>
       <r>   -15.4902     0.3493     1.6038 </r>
       <r>   -15.3711     0.3946     1.6508 </r>
       <r>   -15.2520     0.4872     1.7088 </r>
       <r>   -15.1330     0.2644     1.7403 </r>
       <r>   -15.0139     0.3349     1.7802 </r>
       <r>   -14.8948     1.6526     1.9770 </r>
       <r>   -14.7757     1.1908     2.1188 </r>
       <r>   -14.6566     1.0731     2.2466 </r>
       <r>   -14.5375     0.6259     2.3212 </r>
       <r>   -14.4184     0.6379     2.3971 </r>
       <r>   -14.2993     1.3545     2.5584 </r>
       <r>   -14.1803     0.9282     2.6689 </r>
       <r>   -14.0612     1.0630     2.7955 </r>
       <r>   -13.9421     0.2554     2.8260 </r>
       <r>   -13.8230     0.0619     2.8333 </r>
       <r>   -13.7039     0.0000     2.8333 </r>
       <r>   -13.5848     0.1834     2.8552 </r>
       <r>   -13.4657     0.3753     2.8999 </r>
       <r>   -13.3467     0.0011     2.9000 </r>
       <r>   -13.2276     0.0005     2.9001 </r>
       <r>   -13.1085     0.1878     2.9224 </r>
       <r>   -12.9894     0.1120     2.9358 </r>
       <r>   -12.8703     0.2517     2.9657 </r>
       <r>   -12.7512     0.0084     2.9667 </r>
       <r>   -12.6321     0.1950     2.9900 </r>
       <r>   -12.5131     0.0843     3.0000 </r>
       <r>   -12.3940     0.0006     3.0001 </r>
       <r>   -12.2749     0.5340     3.0637 </r>
       <r>   -12.1558     0.8852     3.1691 </r>
       <r>   -12.0367     0.5375     3.2331 </r>
       <r>   -11.9176     0.2015     3.2571 </r>
       <r>   -11.7985     0.3525     3.2991 </r>
       <r>   -11.6794     0.1641     3.3186 </r>
       <r>   -11.5604     0.6261     3.3932 </r>
       <r>   -11.4413     0.3331     3.4328 </r>
       <r>   -11.3222     0.2791     3.4661 </r>
       <r>   -11.2031     0.0051     3.4667 </r>
       <r>   -11.0840     0.2216     3.4931 </r>
       <r>   -10.9649     0.6288     3.5680 </r>
       <r>   -10.8458     0.2656     3.5996 </r>
       <r>   -10.7268     0.2536     3.6298 </r>
       <r>   -10.6077     0.0619     3.6372 </r>
       <r>   -10.4886     0.3091     3.6740 </r>
       <r>   -10.3695     0.4902     3.7323 </r>
       <r>   -10.2504     0.0561     3.7390 </r>
       <r>   -10.1313     0.3621     3.7821 </r>
       <r>   -10.0122     0.4004     3.8298 </r>
       <r>    -9.8932     0.0418     3.8348 </r>
       <r>    -9.7741     0.4929     3.8935 </r>
       <r>    -9.6550     0.0546     3.9000 </r>
       <r>    -9.5359     0.2727     3.9325 </r>
       <r>    -9.4168     0.5932     4.0031 </r>
       <r>    -9.2977     1.0866     4.1325 </r>
       <r>    -9.1786     1.1576     4.2704 </r>
       <r>    -9.0595     0.6154     4.3437 </r>
       <r>    -8.9405     0.8065     4.4397 </r>
       <r>    -8.8214     0.6440     4.5164 </r>
       <r>    -8.7023     0.5647     4.5837 </r>
       <r>    -8.5832     0.4720     4.6399 </r>
       <r>    -8.4641     0.6047     4.7119 </r>
       <r>    -8.3450     0.9479     4.8248 </r>
       <r>    -8.2259     0.3413     4.8654 </r>
       <r>    -8.1069     1.6790     5.0653 </r>
       <r>    -7.9878     0.7813     5.1584 </r>
       <r>    -7.8687     0.6855     5.2400 </r>
       <r>    -7.7496     0.7109     5.3247 </r>
       <r>    -7.6305     0.3806     5.3700 </r>
       <r>    -7.5114     0.3464     5.4113 </r>
       <r>    -7.3923     0.6020     5.4829 </r>
       <r>    -7.2733     0.6910     5.5652 </r>
       <r>    -7.1542     0.4677     5.6209 </r>
       <r>    -7.0351     0.3350     5.6608 </r>
       <r>    -6.9160     0.2422     5.6897 </r>
       <r>    -6.7969     0.8257     5.7880 </r>
       <r>    -6.6778     0.2765     5.8209 </r>
       <r>    -6.5587     0.6522     5.8986 </r>
       <r>    -6.4397     0.0293     5.9021 </r>
       <r>    -6.3206     0.7175     5.9875 </r>
       <r>    -6.2015     0.5869     6.0574 </r>
       <r>    -6.0824     0.3163     6.0951 </r>
       <r>    -5.9633     0.3296     6.1343 </r>
       <r>    -5.8442     0.3858     6.1803 </r>
       <r>    -5.7251     0.9668     6.2954 </r>
       <r>    -5.6060     0.0666     6.3033 </r>
       <r>    -5.4870     0.7339     6.3907 </r>
       <r>    -5.3679     0.2729     6.4232 </r>
       <r>    -5.2488     0.7369     6.5110 </r>
       <r>    -5.1297     0.6724     6.5910 </r>
       <r>    -5.0106     0.6549     6.6690 </r>
       <r>    -4.8915     0.7711     6.7609 </r>
       <r>    -4.7724     1.8757     6.9842 </r>
       <r>    -4.6534     0.5060     7.0445 </r>
       <r>    -4.5343     0.2256     7.0714 </r>
       <r>    -4.4152     0.2375     7.0996 </r>
       <r>    -4.2961     0.0066     7.1004 </r>
       <r>    -4.1770     0.2670     7.1322 </r>
       <r>    -4.0579     1.2272     7.2784 </r>
       <r>    -3.9388     0.9072     7.3864 </r>
       <r>    -3.8198     0.4291     7.4375 </r>
       <r>    -3.7007     0.3480     7.4789 </r>
       <r>    -3.5816     0.3032     7.5150 </r>
       <r>    -3.4625     0.3129     7.5523 </r>
       <r>    -3.3434     0.4561     7.6066 </r>
       <r>    -3.2243     0.2349     7.6346 </r>
       <r>    -3.1052     0.2560     7.6651 </r>
       <r>    -2.9861     0.1967     7.6885 </r>
       <r>    -2.8671     0.1853     7.7106 </r>
       <r>    -2.7480     0.4653     7.7660 </r>
       <r>    -2.6289     0.1664     7.7858 </r>
       <r>    -2.5098     0.1237     7.8005 </r>
       <r>    -2.3907     0.2452     7.8297 </r>
       <r>    -2.2716     0.2003     7.8536 </r>
       <r>    -2.1525     0.3822     7.8991 </r>
       <r>    -2.0335     0.0472     7.9047 </r>
       <r>    -1.9144     0.2371     7.9330 </r>
       <r>    -1.7953     0.1672     7.9529 </r>
       <r>    -1.6762     0.9440     8.0653 </r>
       <r>    -1.5571     0.0586     8.0723 </r>
       <r>    -1.4380     0.2306     8.0997 </r>
       <r>    -1.3189     0.1090     8.1127 </r>
       <r>    -1.1999     0.4299     8.1639 </r>
       <r>    -1.0808     0.2427     8.1928 </r>
       <r>    -0.9617     0.1151     8.2065 </r>
       <r>    -0.8426     0.2312     8.2341 </r>
       <r>    -0.7235     0.3092     8.2709 </r>
       <r>    -0.6044     0.4792     8.3279 </r>
       <r>    -0.4853     0.2959     8.3632 </r>
       <r>    -0.3662     0.3695     8.4072 </r>
       <r>    -0.2472     0.5272     8.4700 </r>
       <r>    -0.1281     1.1439     8.6062 </r>
       <r>    -0.0090     1.8949     8.8318 </r>
       <r>     0.1101     0.2804     8.8652 </r>
       <r>     0.2292     0.0121     8.8667 </r>
       <r>     0.3483     0.0154     8.8685 </r>
       <r>     0.4674     0.2576     8.8992 </r>
       <r>     0.5864     0.2526     8.9293 </r>
       <r>     0.7055     0.0342     8.9333 </r>
       <r>     0.8246     0.0014     8.9335 </r>
       <r>     0.9437     0.2183     8.9595 </r>
       <r>     1.0628     0.0602     8.9667 </r>
       <r>     1.1819     0.0359     8.9709 </r>
       <r>     1.3010     0.2405     8.9996 </r>
       <r>     1.4200     0.0807     9.0092 </r>
       <r>     1.5391     1.3051     9.1646 </r>
       <r>     1.6582     0.7028     9.2483 </r>
       <r>     1.7773     0.4427     9.3010 </r>
       <r>     1.8964     0.3459     9.3422 </r>
       <r>     2.0155     0.6088     9.4147 </r>
       <r>     2.1346     0.1765     9.4357 </r>
       <r>     2.2536     0.6154     9.5090 </r>
       <r>     2.3727     0.2040     9.5333 </r>
       <r>     2.4918     0.0527     9.5396 </r>
       <r>     2.6109     0.9816     9.6565 </r>
       <r>     2.7300     1.3109     9.8126 </r>
       <r>     2.8491     0.5726     9.8808 </r>
       <r>     2.9682     1.1357    10.0160 </r>
       <r>     3.0873     0.3157    10.0536 </r>
       <r>     3.2063     0.3790    10.0988 </r>
       <r>     3.3254     0.4133    10.1480 </r>
       <r>     3.4445     1.1237    10.2818 </r>
       <r>     3.5636     1.2862    10.4350 </r>
       <r>     3.6827     1.2101    10.5791 </r>
       <r>     3.8018     0.8398    10.6791 </r>
       <r>     3.9209     0.5399    10.7434 </r>
       <r>     4.0399     0.7052    10.8273 </r>
       <r>     4.1590     0.5656    10.8947 </r>
       <r>     4.2781     0.7998    10.9899 </r>
       <r>     4.3972     0.4357    11.0418 </r>
       <r>     4.5163     0.8212    11.1396 </r>
       <r>     4.6354     0.5967    11.2107 </r>
       <r>     4.7545     0.4001    11.2583 </r>
       <r>     4.8735     0.1990    11.2820 </r>
       <r>     4.9926     0.7605    11.3726 </r>
       <r>     5.1117     0.5082    11.4331 </r>
       <r>     5.2308     0.5136    11.4943 </r>
       <r>     5.3499     0.5970    11.5654 </r>
       <r>     5.4690     0.2983    11.6009 </r>
       <r>     5.5881     0.6873    11.6827 </r>
       <r>     5.7072     1.9762    11.9181 </r>
       <r>     5.8262     1.2517    12.0671 </r>
       <r>     5.9453     1.3121    12.2234 </r>
       <r>     6.0644     0.6466    12.3004 </r>
       <r>     6.1835     0.5264    12.3631 </r>
       <r>     6.3026     0.0436    12.3683 </r>
       <r>     6.4217     0.8247    12.4665 </r>
       <r>     6.5408     1.6537    12.6634 </r>
       <r>     6.6598     2.5509    12.9672 </r>
       <r>     6.7789     0.8008    13.0626 </r>
       <r>     6.8980     0.3591    13.1053 </r>
       <r>     7.0171     0.5409    13.1697 </r>
       <r>     7.1362     0.7795    13.2626 </r>
       <r>     7.2553     0.5335    13.3261 </r>
       <r>     7.3744     0.0655    13.3339 </r>
       <r>     7.4934     0.4220    13.3841 </r>
       <r>     7.6125     0.3564    13.4266 </r>
       <r>     7.7316     0.1588    13.4455 </r>
       <r>     7.8507     0.3359    13.4855 </r>
       <r>     7.9698     0.3865    13.5315 </r>
       <r>     8.0889     0.3060    13.5680 </r>
       <r>     8.2080     0.2973    13.6034 </r>
       <r>     8.3271     0.2767    13.6363 </r>
       <r>     8.4461     0.2933    13.6712 </r>
       <r>     8.5652     0.2808    13.7047 </r>
       <r>     8.6843     0.3955    13.7518 </r>
       <r>     8.8034     0.2092    13.7767 </r>
       <r>     8.9225     1.6143    13.9689 </r>
       <r>     9.0416     1.4075    14.1366 </r>
       <r>     9.1607     0.3103    14.1735 </r>
       <r>     9.2797     0.5338    14.2371 </r>
       <r>     9.3988     1.8755    14.4604 </r>
       <r>     9.5179     1.9134    14.6883 </r>
       <r>     9.6370     1.3569    14.8499 </r>
       <r>     9.7561     1.2905    15.0036 </r>
       <r>     9.8752     1.3369    15.1628 </r>
       <r>     9.9943     0.5794    15.2318 </r>
       <r>    10.1133     0.6786    15.3126 </r>
       <r>    10.2324     0.4927    15.3712 </r>
       <r>    10.3515     0.4167    15.4209 </r>
       <r>    10.4706     0.1577    15.4396 </r>
       <r>    10.5897     0.4503    15.4933 </r>
       <r>    10.7088     0.6231    15.5675 </r>
       <r>    10.8279     0.3465    15.6087 </r>
       <r>    10.9470     0.5122    15.6697 </r>
       <r>    11.0660     0.8958    15.7764 </r>
       <r>    11.1851     1.3536    15.9376 </r>
       <r>    11.3042     0.5158    15.9990 </r>
       <r>    11.4233     0.0081    16.0000 </r>
       <r>    11.5424     0.0000    16.0000 </r>
       <r>    11.6615     0.0000    16.0000 </r>
       <r>    11.7806     0.0000    16.0000 </r>
       <r>    11.8996     0.0000    16.0000 </r>
       <r>    12.0187     0.0000    16.0000 </r>
       <r>    12.1378     0.0000    16.0000 </r>
       <r>    12.2569     0.0000    16.0000 </r>
       <r>    12.3760     0.0000    16.0000 </r>
       <r>    12.4951     0.0000    16.0000 </r>
       <r>    12.6142     0.0000    16.0000 </r>
       <r>    12.7332     0.0000    16.0000 </r>
       <r>    12.8523     0.0000    16.0000 </r>
      </set>
     </set>
    </array>
   </total>
  </dos>
 </calculation>
 <structure name="finalpos" >
  <crystal>
   <varray name="basis" >
    <v>       2.46813324       0.00000000       0.00000000 </v>
    <v>       1.23406662       2.13746609       0.00000000 </v>
    <v>       0.00000000       0.00000000      12.00000000 </v>
   </varray>
   <i name="volume">     63.30661323 </i>
   <varray name="rec_basis" >
    <v>       0.40516451      -0.23392184       0.00000000 </v>
    <v>       0.00000000       0.46784368       0.00000000 </v>
    <v>       0.00000000       0.00000000       0.08333333 </v>
   </varray>
  </crystal>
  <varray name="positions" >
   <v>       0.00000000       0.00000000       0.50000000 </v>
   <v>       0.33333334       0.33333334       0.50000000 </v>
  </varray>
 </structure>
</modeling>
