 vasp.6.3.1 04May22 (build Aug 04 2022 13:02:54) complex                        
  
 executed on             LinuxIFC date 2023.09.19  21:32:35
 running on   32 total cores
 distrk:  each k-point on   32 cores,    1 groups
 distr:  one band on NCORE=  16 cores,    2 groups


--------------------------------------------------------------------------------------------------------


 INCAR:
   ISTART = 0            (Read existing wavefunction
   ISPIN = 1            (Non-Spin polarised DFT)
   LREAL = .FALSE.       (Projection operators: automatic)
   ENCUT = 520        (Cut-off energy for plane wave basis set, in eV)
   PREC = A       (Precision level)
   LWAVE = .TRUE.        (Write WAVECAR or not)
   LCHARG = .TRUE.        (Write CHGCAR or not)
   ADDGRID = F      (Increase grid
   ISMEAR = 0            (Gaussian smearing
   SIGMA = 0.05         (Smearing value in eV
   NELM = 200           (Max electronic SCF steps)
   NELMIN = 2            (Min electronic SCF steps)
   EDIFF = 1E-8        (SCF energy convergence
   NSW = 200          (Max ionic steps)
   IBRION = 2            (Algorithm: 0-MD
   ISIF = 3            (Stress/relaxation: 2-Ions, 3-Shape/Ions/V, 4-Shape/Ions)
   EDIFFG = -1E-03        (Ionic convergence
   PSTRESS = 0
   NCORE = 16

 POTCAR:    PAW_PBE Si 05Jan2001                  
 POTCAR:    PAW_PBE C 08Apr2002                   
 -----------------------------------------------------------------------------
|                                                                             |
|           W    W    AA    RRRRR   N    N  II  N    N   GGGG   !!!           |
|           W    W   A  A   R    R  NN   N  II  NN   N  G    G  !!!           |
|           W    W  A    A  R    R  N N  N  II  N N  N  G       !!!           |
|           W WW W  AAAAAA  RRRRR   N  N N  II  N  N N  G  GGG   !            |
|           WW  WW  A    A  R   R   N   NN  II  N   NN  G    G                |
|           W    W  A    A  R    R  N    N  II  N    N   GGGG   !!!           |
|                                                                             |
|     For optimal performance we recommend to set                             |
|       NCORE = 2 up to number-of-cores-per-socket                            |
|     NCORE specifies how many cores store one orbital (NPAR=cpu/NCORE).      |
|     This setting can greatly improve the performance of VASP for DFT.       |
|     The default, NCORE=1 might be grossly inefficient on modern             |
|     multi-core architectures or massively parallel machines. Do your        |
|     own testing! More info at https://www.vasp.at/wiki/index.php/NCORE      |
|     Unfortunately you need to use the default for GW and RPA                |
|     calculations (for HF NCORE is supported but not extensively tested      |
|     yet).                                                                   |
|                                                                             |
 -----------------------------------------------------------------------------

 POTCAR:    PAW_PBE Si 05Jan2001                  
   VRHFIN =Si: s2p2                                                                                 
   LEXCH  = PE                                                                                      
   EATOM  =   103.0669 eV,    7.5752 Ry                                                             
                                                                                                    
   TITEL  = PAW_PBE Si 05Jan2001                                                                    
   LULTRA =        F    use ultrasoft PP ?                                                          
   IUNSCR =        1    unscreen: 0-lin 1-nonlin 2-no                                               
   RPACOR =    1.500    partial core radius                                                         
   POMASS =   28.085; ZVAL   =    4.000    mass and valenz                                          
   RCORE  =    1.900    outmost cutoff radius                                                       
   RWIGS  =    2.480; RWIGS  =    1.312    wigner-seitz radius (au A)                               
   ENMAX  =  245.345; ENMIN  =  184.009 eV                                                          
   ICORE  =        2    local potential                                                             
   LCOR   =        T    correct aug charges                                                         
   LPAW   =        T    paw PP                                                                      
   EAUG   =  322.069                                                                                
   DEXC   =    0.000                                                                                
   RMAX   =    1.950    core radius for proj-oper                                                   
   RAUG   =    1.300    factor for augmentation sphere                                              
   RDEP   =    1.993    radius for radial grids                                                     
   RDEPT  =    1.837    core radius for aug-charge                                                  
                                                                                                    
   Atomic configuration                                                                             
    6 entries                                                                                       
     n  l   j            E        occ.                                                              
     1  0  0.50     -1785.8828   2.0000                                                             
     2  0  0.50      -139.4969   2.0000                                                             
     2  1  1.50       -95.5546   6.0000                                                             
     3  0  0.50       -10.8127   2.0000                                                             
     3  1  0.50        -4.0811   2.0000                                                             
     3  2  1.50        -4.0817   0.0000                                                             
   Description                                                                                      
     l       E           TYP  RCUT    TYP  RCUT                                                     
     0    -10.8127223     23  1.900                                                                 
     0     -7.6451159     23  1.900                                                                 
     1     -4.0811372     23  1.900                                                                 
     1      2.4879257     23  1.900                                                                 
     2     -4.0817478      7  1.900                                                                 
  local pseudopotential read in
  partial core-charges read in
  partial kinetic energy density read in
  atomic valenz-charges read in
  non local Contribution for L=           0  read in
    real space projection operators read in
  non local Contribution for L=           0  read in
    real space projection operators read in
  non local Contribution for L=           1  read in
    real space projection operators read in
  non local Contribution for L=           1  read in
    real space projection operators read in
    PAW grid and wavefunctions read in
 
   number of l-projection  operators is LMAX  =           4
   number of lm-projection operators is LMMAX =           8
 
 POTCAR:    PAW_PBE C 08Apr2002                   
   VRHFIN =C: s2p2                                                                                  
   LEXCH  = PE                                                                                      
   EATOM  =   147.1560 eV,   10.8157 Ry                                                             
                                                                                                    
   TITEL  = PAW_PBE C 08Apr2002                                                                     
   LULTRA =        F    use ultrasoft PP ?                                                          
   IUNSCR =        1    unscreen: 0-lin 1-nonlin 2-no                                               
   RPACOR =    1.200    partial core radius                                                         
   POMASS =   12.011; ZVAL   =    4.000    mass and valenz                                          
   RCORE  =    1.500    outmost cutoff radius                                                       
   RWIGS  =    1.630; RWIGS  =    0.863    wigner-seitz radius (au A)                               
   ENMAX  =  400.000; ENMIN  =  300.000 eV                                                          
   ICORE  =        2    local potential                                                             
   LCOR   =        T    correct aug charges                                                         
   LPAW   =        T    paw PP                                                                      
   EAUG   =  644.873                                                                                
   DEXC   =    0.000                                                                                
   RMAX   =    1.529    core radius for proj-oper                                                   
   RAUG   =    1.300    factor for augmentation sphere                                              
   RDEP   =    1.501    radius for radial grids                                                     
   RDEPT  =    1.300    core radius for aug-charge                                                  
                                                                                                    
   Atomic configuration                                                                             
    4 entries                                                                                       
     n  l   j            E        occ.                                                              
     1  0  0.50      -273.3789   2.0000                                                             
     2  0  0.50       -13.7508   2.0000                                                             
     2  1  0.50        -5.2854   2.0000                                                             
     3  2  1.50        -5.4423   0.0000                                                             
   Description                                                                                      
     l       E           TYP  RCUT    TYP  RCUT                                                     
     0    -13.7508458     23  1.200                                                                 
     0     -8.2022199     23  1.200                                                                 
     1     -5.2854383     23  1.500                                                                 
     1     34.0145650     23  1.500                                                                 
     2     -5.4423304      7  1.500                                                                 
  local pseudopotential read in
  partial core-charges read in
  partial kinetic energy density read in
  atomic valenz-charges read in
  non local Contribution for L=           0  read in
    real space projection operators read in
  non local Contribution for L=           0  read in
    real space projection operators read in
  non local Contribution for L=           1  read in
    real space projection operators read in
  non local Contribution for L=           1  read in
    real space projection operators read in
    PAW grid and wavefunctions read in
 
   number of l-projection  operators is LMAX  =           4
   number of lm-projection operators is LMMAX =           8
 
  PAW_PBE Si 05Jan2001                  :
 energy of atom  1       EATOM= -103.0669
 kinetic energy error for atom=    0.0005 (will be added to EATOM!!)
  PAW_PBE C 08Apr2002                   :
 energy of atom  2       EATOM= -147.1560
 kinetic energy error for atom=    0.0071 (will be added to EATOM!!)
 
 
 POSCAR: g-SiC
  positions in direct lattice
  No initial velocities read in
 exchange correlation table for  LEXCH =        8
   RHO(1)=    0.500       N(1)  =     2000
   RHO(2)=  100.500       N(2)  =     4000
 


--------------------------------------------------------------------------------------------------------


 ion  position               nearest neighbor table
   1  0.333  0.000  0.500-   5 1.79   6 1.79   4 1.79   2 3.10   3 3.10   2 3.10   3 3.10   2 3.10
                             3 3.10
   2  0.000  0.667  0.500-   5 1.79   4 1.79   6 1.79   1 3.10   3 3.10   3 3.10   3 3.10   1 3.10
                             1 3.10
   3  0.667  0.333  0.500-   6 1.79   4 1.79   5 1.79   1 3.10   2 3.10   1 3.10   2 3.10   2 3.10
                             1 3.10
   4  0.667  0.000  0.500-   2 1.79   3 1.79   1 1.79
   5  1.000  0.333  0.500-   2 1.79   1 1.79   3 1.79
   6  0.333  0.667  0.500-   3 1.79   1 1.79   2 1.79
 
  LATTYP: Found a base centered orthorhombic cell.
 ALAT       =     5.3629214918
 B/A-ratio  =     1.7319904698
 C/A-ratio  =     4.3297296139
  
  Lattice vectors:
  
 A1 = (   2.6814607459,  -4.6442644571,   0.0000000000)
 A2 = (   2.6814607459,   4.6442644571,   0.0000000000)
 A3 = (   0.0000000000,   0.0000000000,  23.2200000000)


Analysis of symmetry for initial positions (statically):
=====================================================================
 Subroutine PRICEL returns following result:
 
  LATTYP: Found a base centered orthorhombic cell.
 ALAT       =     3.0961763048
 B/A-ratio  =     1.7321111474
 C/A-ratio  =     7.4995729295
  
  Lattice vectors:
  
 A1 = (  -2.6814607459,  -1.5480881524,   0.0000000000)
 A2 = (   2.6814607459,  -1.5480881524,   0.0000000000)
 A3 = (   0.0000000000,   0.0000000000,  23.2200000000)
 
   3 primitive cells build up your supercell.
 

 Routine SETGRP: Setting up the symmetry group for a 
 base centered orthorhombic supercell.


 Subroutine GETGRP returns: Found  4 space group operations
 (whereof  4 operations were pure point group operations)
 out of a pool of  8 trial point group operations.


The static configuration has the point symmetry C_2v.


Analysis of symmetry for dynamics (positions and initial velocities):
=====================================================================
 Subroutine PRICEL returns following result:
 
  LATTYP: Found a base centered orthorhombic cell.
 ALAT       =     3.0961763048
 B/A-ratio  =     1.7321111474
 C/A-ratio  =     7.4995729295
  
  Lattice vectors:
  
 A1 = (  -2.6814607459,  -1.5480881524,   0.0000000000)
 A2 = (   2.6814607459,  -1.5480881524,   0.0000000000)
 A3 = (   0.0000000000,   0.0000000000,  23.2200000000)
 
   3 primitive cells build up your supercell.
 

 Routine SETGRP: Setting up the symmetry group for a 
 base centered orthorhombic supercell.


 Subroutine GETGRP returns: Found  4 space group operations
 (whereof  4 operations were pure point group operations)
 out of a pool of  8 trial point group operations.


The dynamic configuration has the point symmetry C_2v.


 Subroutine INISYM returns: Found  4 space group operations
 (whereof  4 operations are pure point group operations),
 and found     3 'primitive' translations


----------------------------------------------------------------------------------------

                                     Primitive cell                                     

  volume of cell :     192.7788

  direct lattice vectors                    reciprocal lattice vectors
    -2.681460746 -1.548088152  0.000000000    -0.186465530 -0.322979024  0.000000000
     2.681460746 -1.548088152  0.000000000     0.186465530 -0.322979024 -0.000000000
     0.000000000  0.000000000 23.220000000     0.000000000  0.000000000  0.043066322

  length of vectors
     3.096257202  3.096257202 23.220000000     0.372940805  0.372940805  0.043066322

  position of ions in fractional coordinates (direct lattice)
     0.666666282  0.333333718  0.500000000
     0.333333718  0.666666282  0.500000000

  ion indices of the primitive-cell ions
   primitive index   ion index
                 1           1
                 2           4

----------------------------------------------------------------------------------------

 
 
 KPOINTS: K-Spacing Value to Generate K-Mesh: 0.03

Automatic generation of k-mesh.
 Grid dimensions read from file:
 generate k-points for:    9    9    1

 Generating k-lattice:

  Cartesian coordinates                     Fractional coordinates (reciprocal lattice)
     0.020718392 -0.011962186 -0.000000000     0.111111111  0.000000000  0.000000000
     0.000000000  0.023924372 -0.000000000     0.000000000  0.111111111 -0.000000000
     0.000000000  0.000000000  0.043066322     0.000000000  0.000000000  1.000000000

  Length of vectors
     0.023923747  0.023924372  0.043066322

  Shift w.r.t. Gamma in fractional coordinates (k-lattice)
     0.000000000  0.000000000  0.000000000

 
 Subroutine IBZKPT returns following result:
 ===========================================
 
 Found     25 irreducible k-points:
 
 Following reciprocal coordinates:
            Coordinates               Weight
  0.000000  0.000000  0.000000      1.000000
  0.111111 -0.000000  0.000000      4.000000
  0.222222 -0.000000  0.000000      4.000000
  0.333333  0.000000  0.000000      4.000000
  0.444444 -0.000000  0.000000      4.000000
  0.000000  0.111111  0.000000      2.000000
  0.222222  0.111111  0.000000      2.000000
  0.333333  0.111111  0.000000      4.000000
  0.444444  0.111111  0.000000      4.000000
 -0.444444  0.111111 -0.000000      4.000000
 -0.333333  0.111111 -0.000000      4.000000
 -0.222222  0.111111 -0.000000      4.000000
 -0.111111  0.111111 -0.000000      4.000000
  0.000000  0.222222  0.000000      2.000000
  0.444444  0.222222  0.000000      2.000000
 -0.444444  0.222222 -0.000000      4.000000
 -0.333333  0.222222 -0.000000      4.000000
 -0.222222  0.222222 -0.000000      4.000000
 -0.111111  0.222222  0.000000      4.000000
  0.000000  0.333333  0.000000      2.000000
 -0.333333  0.333333 -0.000000      2.000000
 -0.222222  0.333333  0.000000      4.000000
 -0.111111  0.333333  0.000000      4.000000
  0.000000  0.444444  0.000000      2.000000
 -0.111111  0.444444  0.000000      2.000000
 
 Following cartesian coordinates:
            Coordinates               Weight
  0.000000  0.000000  0.000000      1.000000
  0.020718 -0.011962  0.000000      4.000000
  0.041437 -0.023924  0.000000      4.000000
  0.062155 -0.035887  0.000000      4.000000
  0.082874 -0.047849  0.000000      4.000000
  0.000000  0.023924  0.000000      2.000000
  0.041437  0.000000  0.000000      2.000000
  0.062155 -0.011962  0.000000      4.000000
  0.082874 -0.023924  0.000000      4.000000
 -0.082874  0.071773 -0.000000      4.000000
 -0.062155  0.059811 -0.000000      4.000000
 -0.041437  0.047849 -0.000000      4.000000
 -0.020718  0.035887 -0.000000      4.000000
  0.000000  0.047849 -0.000000      2.000000
  0.082874 -0.000000  0.000000      2.000000
 -0.082874  0.095697 -0.000000      4.000000
 -0.062155  0.083735 -0.000000      4.000000
 -0.041437  0.071773 -0.000000      4.000000
 -0.020718  0.059811 -0.000000      4.000000
  0.000000  0.071773 -0.000000      2.000000
 -0.062155  0.107660 -0.000000      2.000000
 -0.041437  0.095697 -0.000000      4.000000
 -0.020718  0.083735 -0.000000      4.000000
  0.000000  0.095697 -0.000000      2.000000
 -0.020718  0.107660 -0.000000      2.000000
 


--------------------------------------------------------------------------------------------------------




 Dimension of arrays:
   k-points           NKPTS =     25   k-points in BZ     NKDIM =     25   number of bands    NBANDS=     16
   number of dos      NEDOS =    301   number of ions     NIONS =      6
   non local maximal  LDIM  =      4   non local SUM 2l+1 LMDIM =      8
   total plane-waves  NPLWV = 288000
   max r-space proj   IRMAX =      1   max aug-charges    IRDMAX=  16847
   dimension x,y,z NGX =    40 NGY =   40 NGZ =  180
   dimension x,y,z NGXF=    80 NGYF=   80 NGZF=  360
   support grid    NGXF=    80 NGYF=   80 NGZF=  360
   ions per type =               3   3
   NGX,Y,Z   is equivalent  to a cutoff of  12.40, 12.40, 12.89 a.u.
   NGXF,Y,Z  is equivalent  to a cutoff of  24.80, 24.80, 25.77 a.u.

 SYSTEM =  unknown system                          
 POSCAR =  g-SiC                                   

 Startparameter for this run:
   NWRITE =      2    write-flag & timer
   PREC   = a         normal or accurate (medium, high low for compatibility)
   ISTART =      0    job   : 0-new  1-cont  2-samecut
   ICHARG =      2    charge: 1-file 2-atom 10-const
   ISPIN  =      1    spin polarized calculation?
   LNONCOLLINEAR =      F non collinear calculations
   LSORBIT =      F    spin-orbit coupling
   INIWAV =      1    electr: 0-lowe 1-rand  2-diag
   LASPH  =      F    aspherical Exc in radial PAW
 Electronic Relaxation 1
   ENCUT  =  520.0 eV  38.22 Ry    6.18 a.u.   9.97  9.97 43.17*2*pi/ulx,y,z
   ENINI  =  520.0     initial cutoff
   ENAUG  =  644.9 eV  augmentation charge cutoff
   NELM   =    200;   NELMIN=  2; NELMDL= -5     # of ELM steps 
   EDIFF  = 0.1E-07   stopping-criterion for ELM
   LREAL  =      F    real-space projection
   NLSPLINE    = F    spline interpolate recip. space projectors
   LCOMPAT=      F    compatible to vasp.4.4
   GGA_COMPAT  = T    GGA compatible to vasp.4.4-vasp.4.6
   LMAXPAW     = -100 max onsite density
   LMAXMIX     =    2 max onsite mixed and CHGCAR
   VOSKOWN=      0    Vosko Wilk Nusair interpolation
   ROPT   =    0.00000   0.00000
 Ionic relaxation
   EDIFFG = -.1E-02   stopping-criterion for IOM
   NSW    =    200    number of steps for IOM
   NBLOCK =      1;   KBLOCK =    200    inner block; outer block 
   IBRION =      2    ionic relax: 0-MD 1-quasi-New 2-CG
   NFREE  =      1    steps in history (QN), initial steepest desc. (CG)
   ISIF   =      3    stress and relaxation
   IWAVPR =     11    prediction:  0-non 1-charg 2-wave 3-comb
   ISYM   =      2    0-nonsym 1-usesym 2-fastsym
   LCORR  =      T    Harris-Foulkes like correction to forces

   POTIM  = 0.5000    time-step for ionic-motion
   TEIN   =    0.0    initial temperature
   TEBEG  =    0.0;   TEEND  =   0.0 temperature during run
   SMASS  =  -3.00    Nose mass-parameter (am)
   estimated Nose-frequenzy (Omega)   =  0.10E-29 period in steps = 0.13E+47 mass=  -0.657E-27a.u.
   SCALEE = 1.0000    scale energy and forces
   NPACO  =    256;   APACO  = 10.0  distance and # of slots for P.C.
   PSTRESS=    0.0 pullay stress

  Mass of Ions in am
   POMASS =  28.09 12.01
  Ionic Valenz
   ZVAL   =   4.00  4.00
  Atomic Wigner-Seitz radii
   RWIGS  =  -1.00 -1.00
  virtual crystal weights 
   VCA    =   1.00  1.00
   NELECT =      24.0000    total number of electrons
   NUPDOWN=      -1.0000    fix difference up-down

 DOS related values:
   EMIN   =  10.00;   EMAX   =-10.00  energy-range for DOS
   EFERMI =   0.00
   ISMEAR =     0;   SIGMA  =   0.05  broadening in eV -4-tet -1-fermi 0-gaus

 Electronic relaxation 2 (details)
   IALGO  =     38    algorithm
   LDIAG  =      T    sub-space diagonalisation (order eigenvalues)
   LSUBROT=      F    optimize rotation matrix (better conditioning)
   TURBO    =      0    0=normal 1=particle mesh
   IRESTART =      0    0=no restart 2=restart with 2 vectors
   NREBOOT  =      0    no. of reboots
   NMIN     =      0    reboot dimension
   EREF     =   0.00    reference energy to select bands
   IMIX   =      4    mixing-type and parameters
     AMIX     =   0.40;   BMIX     =  1.00
     AMIX_MAG =   1.60;   BMIX_MAG =  1.00
     AMIN     =   0.10
     WC   =   100.;   INIMIX=   1;  MIXPRE=   1;  MAXMIX= -45

 Intra band minimization:
   WEIMIN = 0.0010     energy-eigenvalue tresh-hold
   EBREAK =  0.16E-09  absolut break condition
   DEPER  =   0.30     relativ break condition  

   TIME   =   0.40     timestep for ELM

  volume/ion in A,a.u.               =      96.39       650.47
  Fermi-wavevector in a.u.,A,eV,Ry     =   0.566785  1.071068  4.370807  0.321245
  Thomas-Fermi vector in A             =   1.605325
 
 Write flags
   LWAVE        =      T    write WAVECAR
   LDOWNSAMPLE  =      F    k-point downsampling of WAVECAR
   LCHARG       =      T    write CHGCAR
   LVTOT        =      F    write LOCPOT, total local potential
   LVHAR        =      F    write LOCPOT, Hartree potential only
   LELF         =      F    write electronic localiz. function (ELF)
   LORBIT       =      0    0 simple, 1 ext, 2 COOP (PROOUT), +10 PAW based schemes


 Dipole corrections
   LMONO  =      F    monopole corrections only (constant potential shift)
   LDIPOL =      F    correct potential (dipole corrections)
   IDIPOL =      0    1-x, 2-y, 3-z, 4-all directions 
   EPSILON=  1.0000000 bulk dielectric constant

 Exchange correlation treatment:
   GGA     =    --    GGA type
   LEXCH   =     8    internal setting for exchange type
   LIBXC   =     F    Libxc                    
   VOSKOWN =     0    Vosko Wilk Nusair interpolation
   LHFCALC =     F    Hartree Fock is set to
   LHFONE  =     F    Hartree Fock one center treatment
   AEXX    =    0.0000 exact exchange contribution

 Linear response parameters
   LEPSILON=     F    determine dielectric tensor
   LRPA    =     F    only Hartree local field effects (RPA)
   LNABLA  =     F    use nabla operator in PAW spheres
   LVEL    =     F    velocity operator in full k-point grid
   CSHIFT  =0.1000    complex shift for real part using Kramers Kronig
   OMEGAMAX=  -1.0    maximum frequency
   DEG_THRESHOLD= 0.2000000E-02 threshold for treating states as degnerate
   RTIME   =   -0.100 relaxation time in fs
  (WPLASMAI=    0.000 imaginary part of plasma frequency in eV, 0.658/RTIME)
   DFIELD  = 0.0000000 0.0000000 0.0000000 field for delta impulse in time
 
  Optional k-point grid parameters
   LKPOINTS_OPT  =     F    use optional k-point grid
   KPOINTS_OPT_MODE=     1    mode for optional k-point grid
 
 Orbital magnetization related:
   ORBITALMAG=     F  switch on orbital magnetization
   LCHIMAG   =     F  perturbation theory with respect to B field
   DQ        =  0.001000  dq finite difference perturbation B field
   LLRAUG    =     F  two centre corrections for induced B field



--------------------------------------------------------------------------------------------------------


 conjugate gradient relaxation of ions
 charge density and potential will be updated during run
 non-spin polarized calculation
 Variant of blocked Davidson
 Davidson routine will perform the subspace rotation
 perform sub-space diagonalisation
    after iterative eigenvector-optimisation
 modified Broyden-mixing scheme, WC =      100.0
 initial mixing is a Kerker type mixing with AMIX =  0.4000 and BMIX =      1.0000
 Hartree-type preconditioning will be used
 using additional bands            4
 reciprocal scheme for non local part
 use partial core corrections
 calculate Harris-corrections to forces 
   (improved forces if not selfconsistent)
 use gradient corrections 
 use of overlap-Matrix (Vanderbilt PP)
 Gauss-broadening in eV      SIGMA  =   0.05


--------------------------------------------------------------------------------------------------------


  energy-cutoff  :      520.00
  volume of cell :      578.34
      direct lattice vectors                 reciprocal lattice vectors
     5.362921492  0.000000000  0.000000000     0.186465530 -0.107659675 -0.000000000
     2.681460746  4.644264457  0.000000000     0.000000000  0.215319349 -0.000000000
     0.000000000  0.000000000 23.220000000     0.000000000  0.000000000  0.043066322

  length of vectors
     5.362921492  5.362781375 23.220000000     0.215313723  0.215319349  0.043066322


 
 k-points in units of 2pi/SCALE and weight: K-Spacing Value to Generate K-Mesh: 0.03
   0.00000000  0.00000000  0.00000000       0.012
   0.02071839 -0.01196219  0.00000000       0.049
   0.04143678 -0.02392437  0.00000000       0.049
   0.06215518 -0.03588656  0.00000000       0.049
   0.08287357 -0.04784874  0.00000000       0.049
   0.00000000  0.02392437  0.00000000       0.025
   0.04143678  0.00000000  0.00000000       0.025
   0.06215518 -0.01196219  0.00000000       0.049
   0.08287357 -0.02392437  0.00000000       0.049
  -0.08287357  0.07177312 -0.00000000       0.049
  -0.06215518  0.05981093 -0.00000000       0.049
  -0.04143678  0.04784874 -0.00000000       0.049
  -0.02071839  0.03588656 -0.00000000       0.049
   0.00000000  0.04784874 -0.00000000       0.025
   0.08287357 -0.00000000  0.00000000       0.025
  -0.08287357  0.09569749 -0.00000000       0.049
  -0.06215518  0.08373530 -0.00000000       0.049
  -0.04143678  0.07177312 -0.00000000       0.049
  -0.02071839  0.05981093 -0.00000000       0.049
   0.00000000  0.07177312 -0.00000000       0.025
  -0.06215518  0.10765967 -0.00000000       0.025
  -0.04143678  0.09569749 -0.00000000       0.049
  -0.02071839  0.08373530 -0.00000000       0.049
   0.00000000  0.09569749 -0.00000000       0.025
  -0.02071839  0.10765967 -0.00000000       0.025
 
 k-points in reciprocal lattice and weights: K-Spacing Value to Generate K-Mesh: 0.03
   0.00000000  0.00000000  0.00000000       0.012
   0.11111111 -0.00000000  0.00000000       0.049
   0.22222222 -0.00000000  0.00000000       0.049
   0.33333333  0.00000000  0.00000000       0.049
   0.44444444 -0.00000000  0.00000000       0.049
   0.00000000  0.11111111  0.00000000       0.025
   0.22222222  0.11111111  0.00000000       0.025
   0.33333333  0.11111111  0.00000000       0.049
   0.44444444  0.11111111  0.00000000       0.049
  -0.44444444  0.11111111 -0.00000000       0.049
  -0.33333333  0.11111111 -0.00000000       0.049
  -0.22222222  0.11111111 -0.00000000       0.049
  -0.11111111  0.11111111 -0.00000000       0.049
   0.00000000  0.22222222  0.00000000       0.025
   0.44444444  0.22222222  0.00000000       0.025
  -0.44444444  0.22222222 -0.00000000       0.049
  -0.33333333  0.22222222 -0.00000000       0.049
  -0.22222222  0.22222222 -0.00000000       0.049
  -0.11111111  0.22222222  0.00000000       0.049
   0.00000000  0.33333333  0.00000000       0.025
  -0.33333333  0.33333333 -0.00000000       0.025
  -0.22222222  0.33333333  0.00000000       0.049
  -0.11111111  0.33333333  0.00000000       0.049
   0.00000000  0.44444444  0.00000000       0.025
  -0.11111111  0.44444444  0.00000000       0.025
 
 position of ions in fractional coordinates (direct lattice) 
   0.33333372  0.00000000  0.50000000
   0.00000038  0.66666667  0.50000000
   0.66666705  0.33333333  0.50000000
   0.66666628  0.00000000  0.50000000
   0.99999962  0.33333333  0.50000000
   0.33333295  0.66666667  0.50000000
 
 position of ions in cartesian coordinates  (Angst):
   1.78764256  0.00000000 11.61000000
   1.78764256  3.09617630 11.61000000
   4.46910331  1.54808815 11.61000000
   3.57527893  0.00000000 11.61000000
   6.25673968  1.54808815 11.61000000
   3.57527893  3.09617630 11.61000000
 


--------------------------------------------------------------------------------------------------------


 k-point   1 :   0.0000 0.0000 0.0000  plane waves:   15543
 k-point   2 :   0.1111-0.0000 0.0000  plane waves:   15509
 k-point   3 :   0.2222-0.0000 0.0000  plane waves:   15519
 k-point   4 :   0.3333 0.0000 0.0000  plane waves:   15563
 k-point   5 :   0.4444-0.0000 0.0000  plane waves:   15578
 k-point   6 :   0.0000 0.1111 0.0000  plane waves:   15509
 k-point   7 :   0.2222 0.1111 0.0000  plane waves:   15564
 k-point   8 :   0.3333 0.1111 0.0000  plane waves:   15581
 k-point   9 :   0.4444 0.1111 0.0000  plane waves:   15594
 k-point  10 :  -0.4444 0.1111-0.0000  plane waves:   15578
 k-point  11 :  -0.3333 0.1111-0.0000  plane waves:   15594
 k-point  12 :  -0.2222 0.1111-0.0000  plane waves:   15583
 k-point  13 :  -0.1111 0.1111-0.0000  plane waves:   15564
 k-point  14 :   0.0000 0.2222 0.0000  plane waves:   15519
 k-point  15 :   0.4444 0.2222 0.0000  plane waves:   15608
 k-point  16 :  -0.4444 0.2222-0.0000  plane waves:   15610
 k-point  17 :  -0.3333 0.2222-0.0000  plane waves:   15608
 k-point  18 :  -0.2222 0.2222-0.0000  plane waves:   15608
 k-point  19 :  -0.1111 0.2222 0.0000  plane waves:   15581
 k-point  20 :   0.0000 0.3333 0.0000  plane waves:   15563
 k-point  21 :  -0.3333 0.3333-0.0000  plane waves:   15630
 k-point  22 :  -0.2222 0.3333 0.0000  plane waves:   15610
 k-point  23 :  -0.1111 0.3333 0.0000  plane waves:   15594
 k-point  24 :   0.0000 0.4444 0.0000  plane waves:   15578
 k-point  25 :  -0.1111 0.4444 0.0000  plane waves:   15578

 maximum and minimum number of plane-waves per node :       995      951

 maximum number of plane-waves:     15630
 maximum index in each direction: 
   IXMAX=   10   IYMAX=    9   IZMAX=   43
   IXMIN=  -10   IYMIN=  -10   IZMIN=  -43


 parallel 3D FFT for wavefunctions:
    minimum data exchange during FFTs selected (reduces bandwidth)
 parallel 3D FFT for charge:
    minimum data exchange during FFTs selected (reduces bandwidth)


 total amount of memory used by VASP MPI-rank0    45685. kBytes
=======================================================================

   base      :      30000. kBytes
   nonl-proj :       3282. kBytes
   fftplans  :       3465. kBytes
   grid      :       5723. kBytes
   one-center:          3. kBytes
   wavefun   :       3212. kBytes
 
     INWAV:  cpu time      0.0000: real time      0.0001
 Broyden mixing: mesh for mixing (old mesh)
   NGX = 19   NGY = 19   NGZ = 87
  (NGX  = 80   NGY  = 80   NGZ  =360)
  gives a total of  31407 points

 initial charge density was supplied:
 charge density of overlapping atoms calculated
 number of electron      24.0000000 magnetization 
 keeping initial charge density in first step


--------------------------------------------------------------------------------------------------------


 Maximum index for augmentation-charges          794 (set IRDMAX)


--------------------------------------------------------------------------------------------------------


 First call to EWALD:  gamma=   0.213
 Maximum number of real-space cells 5x 5x 1
 Maximum number of reciprocal cells 2x 2x 7

    FEWALD:  cpu time      0.0021: real time      0.0021


--------------------------------------- Iteration      1(   1)  ---------------------------------------


    POTLOK:  cpu time      0.0667: real time      0.0679
    SETDIJ:  cpu time      0.0036: real time      0.0037
     EDDAV:  cpu time      1.0638: real time      1.0669
       DOS:  cpu time      0.0027: real time      0.0027
    --------------------------------------------
      LOOP:  cpu time      1.1368: real time      1.1411

 eigenvalue-minimisations  :   864
 total energy-change (2. order) : 0.1808879E+03  (-0.7464728E+03)
 number of electron      24.0000000 magnetization 
 augmentation part       24.0000000 magnetization 

 Free energy of the ion-electron system (eV)
  ---------------------------------------------------
  alpha Z        PSCENC =         3.60443664
  Ewald energy   TEWEN  =      2763.88439157
  -Hartree energ DENC   =     -3308.59640888
  -exchange      EXHF   =         0.00000000
  -V(xc)+E(xc)   XCENC  =        10.23849615
  PAW double counting   =       589.93753798     -538.86590994
  entropy T*S    EENTRO =        -0.00361905
  eigenvalues    EBANDS =       -89.95673641
  atomic energy  EATOM  =       750.64573404
  Solvation  Ediel_sol  =         0.00000000
  ---------------------------------------------------
  free energy    TOTEN  =       180.88792212 eV

  energy without entropy =      180.89154117  energy(sigma->0) =      180.88973165


--------------------------------------------------------------------------------------------------------




--------------------------------------- Iteration      1(   2)  ---------------------------------------


     EDDAV:  cpu time      1.4076: real time      1.4105
       DOS:  cpu time      0.0012: real time      0.0012
    --------------------------------------------
      LOOP:  cpu time      1.4087: real time      1.4117

 eigenvalue-minimisations  :  1272
 total energy-change (2. order) :-0.1894769E+03  (-0.1845329E+03)
 number of electron      24.0000000 magnetization 
 augmentation part       24.0000000 magnetization 

 Free energy of the ion-electron system (eV)
  ---------------------------------------------------
  alpha Z        PSCENC =         3.60443664
  Ewald energy   TEWEN  =      2763.88439157
  -Hartree energ DENC   =     -3308.59640888
  -exchange      EXHF   =         0.00000000
  -V(xc)+E(xc)   XCENC  =        10.23849615
  PAW double counting   =       589.93753798     -538.86590994
  entropy T*S    EENTRO =        -0.00248163
  eigenvalues    EBANDS =      -279.43472933
  atomic energy  EATOM  =       750.64573404
  Solvation  Ediel_sol  =         0.00000000
  ---------------------------------------------------
  free energy    TOTEN  =        -8.58893338 eV

  energy without entropy =       -8.58645176  energy(sigma->0) =       -8.58769257


--------------------------------------------------------------------------------------------------------




--------------------------------------- Iteration      1(   3)  ---------------------------------------


     EDDAV:  cpu time      1.2107: real time      1.2134
       DOS:  cpu time      0.0005: real time      0.0005
    --------------------------------------------
      LOOP:  cpu time      1.2112: real time      1.2139

 eigenvalue-minimisations  :  1112
 total energy-change (2. order) :-0.4054416E+02  (-0.4012293E+02)
 number of electron      24.0000000 magnetization 
 augmentation part       24.0000000 magnetization 

 Free energy of the ion-electron system (eV)
  ---------------------------------------------------
  alpha Z        PSCENC =         3.60443664
  Ewald energy   TEWEN  =      2763.88439157
  -Hartree energ DENC   =     -3308.59640888
  -exchange      EXHF   =         0.00000000
  -V(xc)+E(xc)   XCENC  =        10.23849615
  PAW double counting   =       589.93753798     -538.86590994
  entropy T*S    EENTRO =        -0.00000000
  eigenvalues    EBANDS =      -319.98136792
  atomic energy  EATOM  =       750.64573404
  Solvation  Ediel_sol  =         0.00000000
  ---------------------------------------------------
  free energy    TOTEN  =       -49.13309035 eV

  energy without entropy =      -49.13309035  energy(sigma->0) =      -49.13309035


--------------------------------------------------------------------------------------------------------




--------------------------------------- Iteration      1(   4)  ---------------------------------------


     EDDAV:  cpu time      1.1920: real time      1.1945
       DOS:  cpu time      0.0007: real time      0.0007
    --------------------------------------------
      LOOP:  cpu time      1.1927: real time      1.1952

 eigenvalue-minimisations  :  1072
 total energy-change (2. order) :-0.1523031E+01  (-0.1521720E+01)
 number of electron      24.0000000 magnetization 
 augmentation part       24.0000000 magnetization 

 Free energy of the ion-electron system (eV)
  ---------------------------------------------------
  alpha Z        PSCENC =         3.60443664
  Ewald energy   TEWEN  =      2763.88439157
  -Hartree energ DENC   =     -3308.59640888
  -exchange      EXHF   =         0.00000000
  -V(xc)+E(xc)   XCENC  =        10.23849615
  PAW double counting   =       589.93753798     -538.86590994
  entropy T*S    EENTRO =        -0.00000000
  eigenvalues    EBANDS =      -321.50439893
  atomic energy  EATOM  =       750.64573404
  Solvation  Ediel_sol  =         0.00000000
  ---------------------------------------------------
  free energy    TOTEN  =       -50.65612135 eV

  energy without entropy =      -50.65612135  energy(sigma->0) =      -50.65612135


--------------------------------------------------------------------------------------------------------




--------------------------------------- Iteration      1(   5)  ---------------------------------------


     EDDAV:  cpu time      0.9318: real time      0.9341
       DOS:  cpu time      0.0016: real time      0.0016
    CHARGE:  cpu time      0.0888: real time      0.0890
    MIXING:  cpu time      0.0028: real time      0.0029
    --------------------------------------------
      LOOP:  cpu time      1.0251: real time      1.0277

 eigenvalue-minimisations  :  1248
 total energy-change (2. order) :-0.3554044E-01  (-0.3551050E-01)
 number of electron      23.9999998 magnetization 
 augmentation part       -0.1160043 magnetization 

 Broyden mixing:
  rms(total) = 0.16822E+01    rms(broyden)= 0.16821E+01
  rms(prec ) = 0.18067E+01
  weight for this iteration     100.00

 Free energy of the ion-electron system (eV)
  ---------------------------------------------------
  alpha Z        PSCENC =         3.60443664
  Ewald energy   TEWEN  =      2763.88439157
  -Hartree energ DENC   =     -3308.59640888
  -exchange      EXHF   =         0.00000000
  -V(xc)+E(xc)   XCENC  =        10.23849615
  PAW double counting   =       589.93753798     -538.86590994
  entropy T*S    EENTRO =        -0.00000000
  eigenvalues    EBANDS =      -321.53993937
  atomic energy  EATOM  =       750.64573404
  Solvation  Ediel_sol  =         0.00000000
  ---------------------------------------------------
  free energy    TOTEN  =       -50.69166179 eV

  energy without entropy =      -50.69166179  energy(sigma->0) =      -50.69166179


--------------------------------------------------------------------------------------------------------




--------------------------------------- Iteration      1(   6)  ---------------------------------------


    POTLOK:  cpu time      0.0440: real time      0.0442
    SETDIJ:  cpu time      0.0021: real time      0.0021
     EDDAV:  cpu time      0.8413: real time      0.8430
       DOS:  cpu time      0.0005: real time      0.0005
    CHARGE:  cpu time      0.0995: real time      0.0997
    MIXING:  cpu time      0.0029: real time      0.0030
    --------------------------------------------
      LOOP:  cpu time      0.9903: real time      0.9924

 eigenvalue-minimisations  :   880
 total energy-change (2. order) : 0.8100518E+01  (-0.3533166E+01)
 number of electron      23.9999999 magnetization 
 augmentation part       -0.3661848 magnetization 

 Broyden mixing:
  rms(total) = 0.68930E+00    rms(broyden)= 0.68918E+00
  rms(prec ) = 0.70664E+00
  weight for this iteration     100.00

 eigenvalues of (default mixing * dielectric matrix)
  average eigenvalue GAMMA=   1.1551
  1.1551

 Free energy of the ion-electron system (eV)
  ---------------------------------------------------
  alpha Z        PSCENC =         3.60443664
  Ewald energy   TEWEN  =      2763.88439157
  -Hartree energ DENC   =     -3355.42915099
  -exchange      EXHF   =         0.00000000
  -V(xc)+E(xc)   XCENC  =        12.81563451
  PAW double counting   =      1415.90900957    -1365.25228995
  entropy T*S    EENTRO =        -0.00000000
  eigenvalues    EBANDS =      -268.76890869
  atomic energy  EATOM  =       750.64573404
  Solvation  Ediel_sol  =         0.00000000
  ---------------------------------------------------
  free energy    TOTEN  =       -42.59114330 eV

  energy without entropy =      -42.59114330  energy(sigma->0) =      -42.59114330


--------------------------------------------------------------------------------------------------------




--------------------------------------- Iteration      1(   7)  ---------------------------------------


    POTLOK:  cpu time      0.0454: real time      0.0456
    SETDIJ:  cpu time      0.0024: real time      0.0025
     EDDAV:  cpu time      1.0885: real time      1.0904
       DOS:  cpu time      0.0005: real time      0.0005
    CHARGE:  cpu time      0.0989: real time      0.0991
    MIXING:  cpu time      0.0022: real time      0.0022
    --------------------------------------------
      LOOP:  cpu time      1.2380: real time      1.2404

 eigenvalue-minimisations  :  1128
 total energy-change (2. order) : 0.2366921E+00  (-0.1546529E+00)
 number of electron      23.9999999 magnetization 
 augmentation part       -0.4061894 magnetization 

 Broyden mixing:
  rms(total) = 0.32898E+00    rms(broyden)= 0.32895E+00
  rms(prec ) = 0.34077E+00
  weight for this iteration     100.00

 eigenvalues of (default mixing * dielectric matrix)
  average eigenvalue GAMMA=   1.4080
  1.2343  1.5817

 Free energy of the ion-electron system (eV)
  ---------------------------------------------------
  alpha Z        PSCENC =         3.60443664
  Ewald energy   TEWEN  =      2763.88439157
  -Hartree energ DENC   =     -3369.58618579
  -exchange      EXHF   =         0.00000000
  -V(xc)+E(xc)   XCENC  =        13.47199626
  PAW double counting   =      2241.95776032    -2191.43063861
  entropy T*S    EENTRO =        -0.00000000
  eigenvalues    EBANDS =      -254.90194569
  atomic energy  EATOM  =       750.64573404
  Solvation  Ediel_sol  =         0.00000000
  ---------------------------------------------------
  free energy    TOTEN  =       -42.35445125 eV

  energy without entropy =      -42.35445125  energy(sigma->0) =      -42.35445125


--------------------------------------------------------------------------------------------------------




--------------------------------------- Iteration      1(   8)  ---------------------------------------


    POTLOK:  cpu time      0.0466: real time      0.0469
    SETDIJ:  cpu time      0.0020: real time      0.0020
     EDDAV:  cpu time      1.0579: real time      1.0603
       DOS:  cpu time      0.0007: real time      0.0007
    CHARGE:  cpu time      0.0882: real time      0.0883
    MIXING:  cpu time      0.0021: real time      0.0021
    --------------------------------------------
      LOOP:  cpu time      1.1974: real time      1.2002

 eigenvalue-minimisations  :  1144
 total energy-change (2. order) : 0.1463869E+00  (-0.1784377E-01)
 number of electron      23.9999999 magnetization 
 augmentation part       -0.3938043 magnetization 

 Broyden mixing:
  rms(total) = 0.10555E+00    rms(broyden)= 0.10555E+00
  rms(prec ) = 0.11528E+00
  weight for this iteration     100.00

 eigenvalues of (default mixing * dielectric matrix)
  average eigenvalue GAMMA=   1.5162
  2.4471  1.0507  1.0507

 Free energy of the ion-electron system (eV)
  ---------------------------------------------------
  alpha Z        PSCENC =         3.60443664
  Ewald energy   TEWEN  =      2763.88439157
  -Hartree energ DENC   =     -3379.71894110
  -exchange      EXHF   =         0.00000000
  -V(xc)+E(xc)   XCENC  =        13.81961331
  PAW double counting   =      2787.27816464    -2736.86258793
  entropy T*S    EENTRO =        -0.00000000
  eigenvalues    EBANDS =      -244.85887555
  atomic energy  EATOM  =       750.64573404
  Solvation  Ediel_sol  =         0.00000000
  ---------------------------------------------------
  free energy    TOTEN  =       -42.20806438 eV

  energy without entropy =      -42.20806438  energy(sigma->0) =      -42.20806438


--------------------------------------------------------------------------------------------------------




--------------------------------------- Iteration      1(   9)  ---------------------------------------


    POTLOK:  cpu time      0.0559: real time      0.0561
    SETDIJ:  cpu time      0.0045: real time      0.0045
     EDDAV:  cpu time      1.0233: real time      1.0254
       DOS:  cpu time      0.0013: real time      0.0013
    CHARGE:  cpu time      0.1036: real time      0.1037
    MIXING:  cpu time      0.0036: real time      0.0036
    --------------------------------------------
      LOOP:  cpu time      1.1922: real time      1.1945

 eigenvalue-minimisations  :  1080
 total energy-change (2. order) : 0.3902419E-01  (-0.4959236E-02)
 number of electron      23.9999999 magnetization 
 augmentation part       -0.3937295 magnetization 

 Broyden mixing:
  rms(total) = 0.26374E-01    rms(broyden)= 0.26370E-01
  rms(prec ) = 0.37712E-01
  weight for this iteration     100.00

 eigenvalues of (default mixing * dielectric matrix)
  average eigenvalue GAMMA=   1.5997
  1.0842  1.0842  2.1153  2.1153

 Free energy of the ion-electron system (eV)
  ---------------------------------------------------
  alpha Z        PSCENC =         3.60443664
  Ewald energy   TEWEN  =      2763.88439157
  -Hartree energ DENC   =     -3387.88829396
  -exchange      EXHF   =         0.00000000
  -V(xc)+E(xc)   XCENC  =        14.09505161
  PAW double counting   =      3086.48009100    -3036.10424150
  entropy T*S    EENTRO =        -0.00000000
  eigenvalues    EBANDS =      -236.88620959
  atomic energy  EATOM  =       750.64573404
  Solvation  Ediel_sol  =         0.00000000
  ---------------------------------------------------
  free energy    TOTEN  =       -42.16904019 eV

  energy without entropy =      -42.16904019  energy(sigma->0) =      -42.16904019


--------------------------------------------------------------------------------------------------------




--------------------------------------- Iteration      1(  10)  ---------------------------------------


    POTLOK:  cpu time      0.0553: real time      0.0554
    SETDIJ:  cpu time      0.0027: real time      0.0027
     EDDAV:  cpu time      1.2721: real time      1.2744
       DOS:  cpu time      0.0007: real time      0.0007
    CHARGE:  cpu time      0.1003: real time      0.1004
    MIXING:  cpu time      0.0026: real time      0.0026
    --------------------------------------------
      LOOP:  cpu time      1.4337: real time      1.4363

 eigenvalue-minimisations  :  1248
 total energy-change (2. order) : 0.8427565E-02  (-0.1259716E-02)
 number of electron      23.9999999 magnetization 
 augmentation part       -0.3982822 magnetization 

 Broyden mixing:
  rms(total) = 0.19142E-01    rms(broyden)= 0.19139E-01
  rms(prec ) = 0.26534E-01
  weight for this iteration     100.00

 eigenvalues of (default mixing * dielectric matrix)
  average eigenvalue GAMMA=   1.8348
  3.4494  2.3712  1.0332  1.1600  1.1600

 Free energy of the ion-electron system (eV)
  ---------------------------------------------------
  alpha Z        PSCENC =         3.60443664
  Ewald energy   TEWEN  =      2763.88439157
  -Hartree energ DENC   =     -3392.84043159
  -exchange      EXHF   =         0.00000000
  -V(xc)+E(xc)   XCENC  =        14.16880962
  PAW double counting   =      3059.68294670    -3009.27596883
  entropy T*S    EENTRO =        -0.00000000
  eigenvalues    EBANDS =      -232.03053078
  atomic energy  EATOM  =       750.64573404
  Solvation  Ediel_sol  =         0.00000000
  ---------------------------------------------------
  free energy    TOTEN  =       -42.16061262 eV

  energy without entropy =      -42.16061262  energy(sigma->0) =      -42.16061262


--------------------------------------------------------------------------------------------------------




--------------------------------------- Iteration      1(  11)  ---------------------------------------


    POTLOK:  cpu time      0.0513: real time      0.0514
    SETDIJ:  cpu time      0.0020: real time      0.0020
     EDDAV:  cpu time      1.1850: real time      1.1878
       DOS:  cpu time      0.0005: real time      0.0005
    CHARGE:  cpu time      0.1022: real time      0.1024
    MIXING:  cpu time      0.0035: real time      0.0035
    --------------------------------------------
      LOOP:  cpu time      1.3447: real time      1.3477

 eigenvalue-minimisations  :  1096
 total energy-change (2. order) : 0.5530483E-02  (-0.8763168E-03)
 number of electron      23.9999999 magnetization 
 augmentation part       -0.3954847 magnetization 

 Broyden mixing:
  rms(total) = 0.89759E-02    rms(broyden)= 0.89734E-02
  rms(prec ) = 0.13526E-01
  weight for this iteration     100.00

 eigenvalues of (default mixing * dielectric matrix)
  average eigenvalue GAMMA=   1.6938
  3.2101  2.4120  1.4151  0.9049  1.1105  1.1105

 Free energy of the ion-electron system (eV)
  ---------------------------------------------------
  alpha Z        PSCENC =         3.60443664
  Ewald energy   TEWEN  =      2763.88439157
  -Hartree energ DENC   =     -3397.95362640
  -exchange      EXHF   =         0.00000000
  -V(xc)+E(xc)   XCENC  =        14.23711345
  PAW double counting   =      3070.95190515    -3020.53970425
  entropy T*S    EENTRO =        -0.00000000
  eigenvalues    EBANDS =      -226.98533235
  atomic energy  EATOM  =       750.64573404
  Solvation  Ediel_sol  =         0.00000000
  ---------------------------------------------------
  free energy    TOTEN  =       -42.15508214 eV

  energy without entropy =      -42.15508214  energy(sigma->0) =      -42.15508214


--------------------------------------------------------------------------------------------------------




--------------------------------------- Iteration      1(  12)  ---------------------------------------


    POTLOK:  cpu time      0.0560: real time      0.0571
    SETDIJ:  cpu time      0.0018: real time      0.0018
     EDDAV:  cpu time      1.0847: real time      1.0872
       DOS:  cpu time      0.0008: real time      0.0008
    CHARGE:  cpu time      0.0977: real time      0.0979
    MIXING:  cpu time      0.0024: real time      0.0024
    --------------------------------------------
      LOOP:  cpu time      1.2433: real time      1.2470

 eigenvalue-minimisations  :   968
 total energy-change (2. order) :-0.1684489E-02  (-0.6726995E-04)
 number of electron      23.9999999 magnetization 
 augmentation part       -0.3960209 magnetization 

 Broyden mixing:
  rms(total) = 0.41883E-02    rms(broyden)= 0.41877E-02
  rms(prec ) = 0.88172E-02
  weight for this iteration     100.00

 eigenvalues of (default mixing * dielectric matrix)
  average eigenvalue GAMMA=   2.1021
  5.2065  2.9013  2.4059  1.1053  1.1053  1.0703  0.9198

 Free energy of the ion-electron system (eV)
  ---------------------------------------------------
  alpha Z        PSCENC =         3.60443664
  Ewald energy   TEWEN  =      2763.88439157
  -Hartree energ DENC   =     -3399.26465377
  -exchange      EXHF   =         0.00000000
  -V(xc)+E(xc)   XCENC  =        14.24540038
  PAW double counting   =      3060.47651414    -3010.06726507
  entropy T*S    EENTRO =        -0.00000000
  eigenvalues    EBANDS =      -225.68132456
  atomic energy  EATOM  =       750.64573404
  Solvation  Ediel_sol  =         0.00000000
  ---------------------------------------------------
  free energy    TOTEN  =       -42.15676663 eV

  energy without entropy =      -42.15676663  energy(sigma->0) =      -42.15676663


--------------------------------------------------------------------------------------------------------




--------------------------------------- Iteration      1(  13)  ---------------------------------------


    POTLOK:  cpu time      0.0558: real time      0.0573
    SETDIJ:  cpu time      0.0026: real time      0.0026
     EDDAV:  cpu time      1.0693: real time      1.0714
       DOS:  cpu time      0.0005: real time      0.0005
    CHARGE:  cpu time      0.1026: real time      0.1028
    MIXING:  cpu time      0.0033: real time      0.0033
    --------------------------------------------
      LOOP:  cpu time      1.2340: real time      1.2379

 eigenvalue-minimisations  :   976
 total energy-change (2. order) :-0.7752883E-03  (-0.2139841E-03)
 number of electron      23.9999999 magnetization 
 augmentation part       -0.3960587 magnetization 

 Broyden mixing:
  rms(total) = 0.40743E-02    rms(broyden)= 0.40737E-02
  rms(prec ) = 0.50653E-02
  weight for this iteration     100.00

 eigenvalues of (default mixing * dielectric matrix)
  average eigenvalue GAMMA=   2.2745
  6.3420  3.2551  2.2366  2.2366  1.0832  1.0832  0.9795  0.9795

 Free energy of the ion-electron system (eV)
  ---------------------------------------------------
  alpha Z        PSCENC =         3.60443664
  Ewald energy   TEWEN  =      2763.88439157
  -Hartree energ DENC   =     -3402.78324664
  -exchange      EXHF   =         0.00000000
  -V(xc)+E(xc)   XCENC  =        14.27035829
  PAW double counting   =      3051.13293815    -3000.72475514
  entropy T*S    EENTRO =        -0.00000000
  eigenvalues    EBANDS =      -222.18739883
  atomic energy  EATOM  =       750.64573404
  Solvation  Ediel_sol  =         0.00000000
  ---------------------------------------------------
  free energy    TOTEN  =       -42.15754192 eV

  energy without entropy =      -42.15754192  energy(sigma->0) =      -42.15754192


--------------------------------------------------------------------------------------------------------




--------------------------------------- Iteration      1(  14)  ---------------------------------------


    POTLOK:  cpu time      0.0502: real time      0.0504
    SETDIJ:  cpu time      0.0028: real time      0.0028
     EDDAV:  cpu time      1.1179: real time      1.1204
       DOS:  cpu time      0.0005: real time      0.0005
    CHARGE:  cpu time      0.1053: real time      0.1056
    MIXING:  cpu time      0.0027: real time      0.0028
    --------------------------------------------
      LOOP:  cpu time      1.2795: real time      1.2825

 eigenvalue-minimisations  :  1032
 total energy-change (2. order) :-0.2245343E-02  (-0.1852146E-04)
 number of electron      23.9999999 magnetization 
 augmentation part       -0.3961166 magnetization 

 Broyden mixing:
  rms(total) = 0.19573E-02    rms(broyden)= 0.19571E-02
  rms(prec ) = 0.24307E-02
  weight for this iteration     100.00

 eigenvalues of (default mixing * dielectric matrix)
  average eigenvalue GAMMA=   2.2985
  6.9729  3.4223  2.6823  2.3309  1.1058  1.1058  1.1773  0.9448  0.9448

 Free energy of the ion-electron system (eV)
  ---------------------------------------------------
  alpha Z        PSCENC =         3.60443664
  Ewald energy   TEWEN  =      2763.88439157
  -Hartree energ DENC   =     -3403.71243612
  -exchange      EXHF   =         0.00000000
  -V(xc)+E(xc)   XCENC  =        14.27033560
  PAW double counting   =      3063.21911704    -3012.80709727
  entropy T*S    EENTRO =        -0.00000000
  eigenvalues    EBANDS =      -221.26426876
  atomic energy  EATOM  =       750.64573404
  Solvation  Ediel_sol  =         0.00000000
  ---------------------------------------------------
  free energy    TOTEN  =       -42.15978726 eV

  energy without entropy =      -42.15978726  energy(sigma->0) =      -42.15978726


--------------------------------------------------------------------------------------------------------




--------------------------------------- Iteration      1(  15)  ---------------------------------------


    POTLOK:  cpu time      0.0542: real time      0.0543
    SETDIJ:  cpu time      0.0061: real time      0.0061
     EDDAV:  cpu time      1.0579: real time      1.0605
       DOS:  cpu time      0.0008: real time      0.0008
    CHARGE:  cpu time      0.1040: real time      0.1042
    MIXING:  cpu time      0.0023: real time      0.0023
    --------------------------------------------
      LOOP:  cpu time      1.2251: real time      1.2281

 eigenvalue-minimisations  :   920
 total energy-change (2. order) :-0.1489466E-02  (-0.2301814E-04)
 number of electron      23.9999999 magnetization 
 augmentation part       -0.3959731 magnetization 

 Broyden mixing:
  rms(total) = 0.19944E-02    rms(broyden)= 0.19944E-02
  rms(prec ) = 0.21404E-02
  weight for this iteration     100.00

 eigenvalues of (default mixing * dielectric matrix)
  average eigenvalue GAMMA=   2.6301
  8.5929  4.5240  3.2029  2.5145  2.2632  1.0927  1.0927  0.9763  0.9763  1.0650

 Free energy of the ion-electron system (eV)
  ---------------------------------------------------
  alpha Z        PSCENC =         3.60443664
  Ewald energy   TEWEN  =      2763.88439157
  -Hartree energ DENC   =     -3403.66378890
  -exchange      EXHF   =         0.00000000
  -V(xc)+E(xc)   XCENC  =        14.26575124
  PAW double counting   =      3065.57126420    -3015.15954425
  entropy T*S    EENTRO =        -0.00000000
  eigenvalues    EBANDS =      -221.30952128
  atomic energy  EATOM  =       750.64573404
  Solvation  Ediel_sol  =         0.00000000
  ---------------------------------------------------
  free energy    TOTEN  =       -42.16127673 eV

  energy without entropy =      -42.16127673  energy(sigma->0) =      -42.16127673


--------------------------------------------------------------------------------------------------------




--------------------------------------- Iteration      1(  16)  ---------------------------------------


    POTLOK:  cpu time      0.0561: real time      0.0564
    SETDIJ:  cpu time      0.0025: real time      0.0025
     EDDAV:  cpu time      1.1229: real time      1.1256
       DOS:  cpu time      0.0009: real time      0.0009
    CHARGE:  cpu time      0.1005: real time      0.1007
    MIXING:  cpu time      0.0041: real time      0.0041
    --------------------------------------------
      LOOP:  cpu time      1.2870: real time      1.2902

 eigenvalue-minimisations  :  1040
 total energy-change (2. order) :-0.7378610E-03  (-0.8101592E-05)
 number of electron      23.9999999 magnetization 
 augmentation part       -0.3959078 magnetization 

 Broyden mixing:
  rms(total) = 0.12206E-02    rms(broyden)= 0.12206E-02
  rms(prec ) = 0.12546E-02
  weight for this iteration     100.00

 eigenvalues of (default mixing * dielectric matrix)
  average eigenvalue GAMMA=   2.5158
  8.5154  5.0030  2.8264  2.3993  1.8857  1.8857  1.0944  1.0944  0.9796  0.9796
  1.0104

 Free energy of the ion-electron system (eV)
  ---------------------------------------------------
  alpha Z        PSCENC =         3.60443664
  Ewald energy   TEWEN  =      2763.88439157
  -Hartree energ DENC   =     -3403.88953864
  -exchange      EXHF   =         0.00000000
  -V(xc)+E(xc)   XCENC  =        14.26617038
  PAW double counting   =      3057.71111675    -3007.30057617
  entropy T*S    EENTRO =        -0.00000000
  eigenvalues    EBANDS =      -221.08374916
  atomic energy  EATOM  =       750.64573404
  Solvation  Ediel_sol  =         0.00000000
  ---------------------------------------------------
  free energy    TOTEN  =       -42.16201459 eV

  energy without entropy =      -42.16201459  energy(sigma->0) =      -42.16201459


--------------------------------------------------------------------------------------------------------




--------------------------------------- Iteration      1(  17)  ---------------------------------------


    POTLOK:  cpu time      0.0533: real time      0.0535
    SETDIJ:  cpu time      0.0018: real time      0.0018
     EDDAV:  cpu time      1.2033: real time      1.2060
       DOS:  cpu time      0.0006: real time      0.0006
    CHARGE:  cpu time      0.1002: real time      0.1005
    MIXING:  cpu time      0.0035: real time      0.0035
    --------------------------------------------
      LOOP:  cpu time      1.3627: real time      1.3660

 eigenvalue-minimisations  :  1144
 total energy-change (2. order) :-0.6494699E-04  (-0.5669473E-06)
 number of electron      23.9999999 magnetization 
 augmentation part       -0.3960097 magnetization 

 Broyden mixing:
  rms(total) = 0.20190E-03    rms(broyden)= 0.20186E-03
  rms(prec ) = 0.26751E-03
  weight for this iteration     100.00

 eigenvalues of (default mixing * dielectric matrix)
  average eigenvalue GAMMA=   2.6925
  9.1890  5.9023  3.4349  3.0266  2.4348  2.1300  1.0943  1.0943  0.9588  0.9588
  1.0431  1.0431

 Free energy of the ion-electron system (eV)
  ---------------------------------------------------
  alpha Z        PSCENC =         3.60443664
  Ewald energy   TEWEN  =      2763.88439157
  -Hartree energ DENC   =     -3403.85025658
  -exchange      EXHF   =         0.00000000
  -V(xc)+E(xc)   XCENC  =        14.26571014
  PAW double counting   =      3060.62287579    -3010.21202643
  entropy T*S    EENTRO =        -0.00000000
  eigenvalues    EBANDS =      -221.12294471
  atomic energy  EATOM  =       750.64573404
  Solvation  Ediel_sol  =         0.00000000
  ---------------------------------------------------
  free energy    TOTEN  =       -42.16207954 eV

  energy without entropy =      -42.16207954  energy(sigma->0) =      -42.16207954


--------------------------------------------------------------------------------------------------------




--------------------------------------- Iteration      1(  18)  ---------------------------------------


    POTLOK:  cpu time      0.0549: real time      0.0550
    SETDIJ:  cpu time      0.0019: real time      0.0020
     EDDAV:  cpu time      1.1275: real time      1.1304
       DOS:  cpu time      0.0009: real time      0.0009
    CHARGE:  cpu time      0.0991: real time      0.0993
    MIXING:  cpu time      0.0034: real time      0.0034
    --------------------------------------------
      LOOP:  cpu time      1.2877: real time      1.2909

 eigenvalue-minimisations  :  1008
 total energy-change (2. order) :-0.1269696E-03  (-0.1106915E-05)
 number of electron      23.9999999 magnetization 
 augmentation part       -0.3960183 magnetization 

 Broyden mixing:
  rms(total) = 0.27874E-03    rms(broyden)= 0.27873E-03
  rms(prec ) = 0.28415E-03
  weight for this iteration     100.00

 eigenvalues of (default mixing * dielectric matrix)
  average eigenvalue GAMMA=   2.6537
  9.1730  6.0005  3.7502  2.5188  2.5188  2.3905  1.9828  1.0939  1.0939  1.0179
  1.0179  0.9698  0.9698

 Free energy of the ion-electron system (eV)
  ---------------------------------------------------
  alpha Z        PSCENC =         3.60443664
  Ewald energy   TEWEN  =      2763.88439157
  -Hartree energ DENC   =     -3403.86017444
  -exchange      EXHF   =         0.00000000
  -V(xc)+E(xc)   XCENC  =        14.26565548
  PAW double counting   =      3060.84788102    -3010.43695088
  entropy T*S    EENTRO =        -0.00000000
  eigenvalues    EBANDS =      -221.11317994
  atomic energy  EATOM  =       750.64573404
  Solvation  Ediel_sol  =         0.00000000
  ---------------------------------------------------
  free energy    TOTEN  =       -42.16220650 eV

  energy without entropy =      -42.16220650  energy(sigma->0) =      -42.16220650


--------------------------------------------------------------------------------------------------------




--------------------------------------- Iteration      1(  19)  ---------------------------------------


    POTLOK:  cpu time      0.0498: real time      0.0499
    SETDIJ:  cpu time      0.0031: real time      0.0031
     EDDAV:  cpu time      1.2196: real time      1.2224
       DOS:  cpu time      0.0005: real time      0.0005
    CHARGE:  cpu time      0.0973: real time      0.0974
    MIXING:  cpu time      0.0052: real time      0.0052
    --------------------------------------------
      LOOP:  cpu time      1.3755: real time      1.3786

 eigenvalue-minimisations  :  1128
 total energy-change (2. order) :-0.8502603E-05  (-0.1448800E-07)
 number of electron      23.9999999 magnetization 
 augmentation part       -0.3960101 magnetization 

 Broyden mixing:
  rms(total) = 0.97127E-04    rms(broyden)= 0.97126E-04
  rms(prec ) = 0.10036E-03
  weight for this iteration     100.00

 eigenvalues of (default mixing * dielectric matrix)
  average eigenvalue GAMMA=   2.6599
  9.2940  6.1957  4.2343  3.1082  2.7217  2.4054  2.0998  1.0932  1.0932  1.0627
  1.0627  0.9710  0.9710  0.9260

 Free energy of the ion-electron system (eV)
  ---------------------------------------------------
  alpha Z        PSCENC =         3.60443664
  Ewald energy   TEWEN  =      2763.88439157
  -Hartree energ DENC   =     -3403.87034420
  -exchange      EXHF   =         0.00000000
  -V(xc)+E(xc)   XCENC  =        14.26577664
  PAW double counting   =      3060.57495405    -3010.16400685
  entropy T*S    EENTRO =        -0.00000000
  eigenvalues    EBANDS =      -221.10315689
  atomic energy  EATOM  =       750.64573404
  Solvation  Ediel_sol  =         0.00000000
  ---------------------------------------------------
  free energy    TOTEN  =       -42.16221501 eV

  energy without entropy =      -42.16221501  energy(sigma->0) =      -42.16221501


--------------------------------------------------------------------------------------------------------




--------------------------------------- Iteration      1(  20)  ---------------------------------------


    POTLOK:  cpu time      0.0516: real time      0.0517
    SETDIJ:  cpu time      0.0036: real time      0.0036
     EDDAV:  cpu time      1.0092: real time      1.0111
       DOS:  cpu time      0.0004: real time      0.0004
    CHARGE:  cpu time      0.0836: real time      0.0837
    MIXING:  cpu time      0.0030: real time      0.0030
    --------------------------------------------
      LOOP:  cpu time      1.1513: real time      1.1534

 eigenvalue-minimisations  :   920
 total energy-change (2. order) :-0.5749724E-05  (-0.1894287E-07)
 number of electron      23.9999999 magnetization 
 augmentation part       -0.3959985 magnetization 

 Broyden mixing:
  rms(total) = 0.50090E-04    rms(broyden)= 0.50085E-04
  rms(prec ) = 0.50571E-04
  weight for this iteration     100.00

 eigenvalues of (default mixing * dielectric matrix)
  average eigenvalue GAMMA=   2.6610
  9.3356  6.1602  4.4839  3.2058  2.6521  2.6521  2.3370  2.0145  1.0933  1.0933
  1.0146  1.0146  0.9726  0.9726  0.9134

 Free energy of the ion-electron system (eV)
  ---------------------------------------------------
  alpha Z        PSCENC =         3.60443664
  Ewald energy   TEWEN  =      2763.88439157
  -Hartree energ DENC   =     -3403.87212104
  -exchange      EXHF   =         0.00000000
  -V(xc)+E(xc)   XCENC  =        14.26571240
  PAW double counting   =      3060.39327295    -3009.98234771
  entropy T*S    EENTRO =        -0.00000000
  eigenvalues    EBANDS =      -221.10129961
  atomic energy  EATOM  =       750.64573404
  Solvation  Ediel_sol  =         0.00000000
  ---------------------------------------------------
  free energy    TOTEN  =       -42.16222076 eV

  energy without entropy =      -42.16222076  energy(sigma->0) =      -42.16222076


--------------------------------------------------------------------------------------------------------




--------------------------------------- Iteration      1(  21)  ---------------------------------------


    POTLOK:  cpu time      0.0397: real time      0.0398
    SETDIJ:  cpu time      0.0025: real time      0.0025
     EDDAV:  cpu time      0.7378: real time      0.7397
       DOS:  cpu time      0.0006: real time      0.0006
    CHARGE:  cpu time      0.0843: real time      0.0845
    MIXING:  cpu time      0.0027: real time      0.0027
    --------------------------------------------
      LOOP:  cpu time      0.8676: real time      0.8697

 eigenvalue-minimisations  :   888
 total energy-change (2. order) :-0.4943404E-06  (-0.4532979E-09)
 number of electron      23.9999999 magnetization 
 augmentation part       -0.3959980 magnetization 

 Broyden mixing:
  rms(total) = 0.29340E-04    rms(broyden)= 0.29339E-04
  rms(prec ) = 0.29819E-04
  weight for this iteration     100.00

 eigenvalues of (default mixing * dielectric matrix)
  average eigenvalue GAMMA=   2.5907
  9.3232  6.2270  4.4475  3.2556  3.0686  2.5960  2.4017  2.1109  1.0926  1.0926
  1.0340  1.0340  0.9852  0.9852  0.8982  0.8982

 Free energy of the ion-electron system (eV)
  ---------------------------------------------------
  alpha Z        PSCENC =         3.60443664
  Ewald energy   TEWEN  =      2763.88439157
  -Hartree energ DENC   =     -3403.87230658
  -exchange      EXHF   =         0.00000000
  -V(xc)+E(xc)   XCENC  =        14.26571935
  PAW double counting   =      3060.37804306    -3009.96712347
  entropy T*S    EENTRO =        -0.00000000
  eigenvalues    EBANDS =      -221.10111585
  atomic energy  EATOM  =       750.64573404
  Solvation  Ediel_sol  =         0.00000000
  ---------------------------------------------------
  free energy    TOTEN  =       -42.16222125 eV

  energy without entropy =      -42.16222125  energy(sigma->0) =      -42.16222125


--------------------------------------------------------------------------------------------------------




--------------------------------------- Iteration      1(  22)  ---------------------------------------


    POTLOK:  cpu time      0.0415: real time      0.0417
    SETDIJ:  cpu time      0.0019: real time      0.0019
     EDDAV:  cpu time      0.6967: real time      0.6983
       DOS:  cpu time      0.0005: real time      0.0005
    CHARGE:  cpu time      0.0930: real time      0.0933
    MIXING:  cpu time      0.0038: real time      0.0038
    --------------------------------------------
      LOOP:  cpu time      0.8373: real time      0.8394

 eigenvalue-minimisations  :   744
 total energy-change (2. order) :-0.2047204E-06  (-0.3712864E-09)
 number of electron      23.9999999 magnetization 
 augmentation part       -0.3959999 magnetization 

 Broyden mixing:
  rms(total) = 0.60412E-05    rms(broyden)= 0.60408E-05
  rms(prec ) = 0.61350E-05
  weight for this iteration     100.00

 eigenvalues of (default mixing * dielectric matrix)
  average eigenvalue GAMMA=   2.5542
  9.3308  6.2252  4.4986  3.4468  3.0166  2.4958  2.4958  2.1770  1.6637  1.0938
  1.0938  0.9994  0.9994  1.0353  0.9528  0.9528  0.9442

 Free energy of the ion-electron system (eV)
  ---------------------------------------------------
  alpha Z        PSCENC =         3.60443664
  Ewald energy   TEWEN  =      2763.88439157
  -Hartree energ DENC   =     -3403.87122911
  -exchange      EXHF   =         0.00000000
  -V(xc)+E(xc)   XCENC  =        14.26571797
  PAW double counting   =      3060.42686884    -3010.01594858
  entropy T*S    EENTRO =        -0.00000000
  eigenvalues    EBANDS =      -221.10219284
  atomic energy  EATOM  =       750.64573404
  Solvation  Ediel_sol  =         0.00000000
  ---------------------------------------------------
  free energy    TOTEN  =       -42.16222146 eV

  energy without entropy =      -42.16222146  energy(sigma->0) =      -42.16222146


--------------------------------------------------------------------------------------------------------




--------------------------------------- Iteration      1(  23)  ---------------------------------------


    POTLOK:  cpu time      0.0466: real time      0.0467
    SETDIJ:  cpu time      0.0021: real time      0.0021
     EDDAV:  cpu time      0.8630: real time      0.8651
       DOS:  cpu time      0.0006: real time      0.0006
    CHARGE:  cpu time      0.0970: real time      0.0972
    MIXING:  cpu time      0.0035: real time      0.0035
    --------------------------------------------
      LOOP:  cpu time      1.0128: real time      1.0152

 eigenvalue-minimisations  :   864
 total energy-change (2. order) :-0.1273020E-07  (-0.4391610E-10)
 number of electron      23.9999999 magnetization 
 augmentation part       -0.3960002 magnetization 

 Broyden mixing:
  rms(total) = 0.32712E-05    rms(broyden)= 0.32710E-05
  rms(prec ) = 0.33516E-05
  weight for this iteration     100.00

 eigenvalues of (default mixing * dielectric matrix)
  average eigenvalue GAMMA=   2.5182
  9.3300  6.2282  4.5068  3.4854  2.8747  2.7791  2.4679  2.4679  2.1700  1.0932
  1.0932  1.0045  1.0045  1.0136  0.9630  0.9210  0.9626  0.9626

 Free energy of the ion-electron system (eV)
  ---------------------------------------------------
  alpha Z        PSCENC =         3.60443664
  Ewald energy   TEWEN  =      2763.88439157
  -Hartree energ DENC   =     -3403.87116672
  -exchange      EXHF   =         0.00000000
  -V(xc)+E(xc)   XCENC  =        14.26571855
  PAW double counting   =      3060.44302376    -3010.03210217
  entropy T*S    EENTRO =        -0.00000000
  eigenvalues    EBANDS =      -221.10225713
  atomic energy  EATOM  =       750.64573404
  Solvation  Ediel_sol  =         0.00000000
  ---------------------------------------------------
  free energy    TOTEN  =       -42.16222147 eV

  energy without entropy =      -42.16222147  energy(sigma->0) =      -42.16222147


--------------------------------------------------------------------------------------------------------




--------------------------------------- Iteration      1(  24)  ---------------------------------------


    POTLOK:  cpu time      0.0456: real time      0.0458
    SETDIJ:  cpu time      0.0019: real time      0.0019
     EDDAV:  cpu time      0.8084: real time      0.8104
       DOS:  cpu time      0.0005: real time      0.0005
    --------------------------------------------
      LOOP:  cpu time      0.8564: real time      0.8585

 eigenvalue-minimisations  :   760
 total energy-change (2. order) :-0.8021743E-09  (-0.1055555E-10)
 number of electron      23.9999999 magnetization 
 augmentation part       -0.3960002 magnetization 

 Free energy of the ion-electron system (eV)
  ---------------------------------------------------
  alpha Z        PSCENC =         3.60443664
  Ewald energy   TEWEN  =      2763.88439157
  -Hartree energ DENC   =     -3403.87112238
  -exchange      EXHF   =         0.00000000
  -V(xc)+E(xc)   XCENC  =        14.26571879
  PAW double counting   =      3060.43381813    -3010.02289742
  entropy T*S    EENTRO =        -0.00000000
  eigenvalues    EBANDS =      -221.10230084
  atomic energy  EATOM  =       750.64573404
  Solvation  Ediel_sol  =         0.00000000
  ---------------------------------------------------
  free energy    TOTEN  =       -42.16222147 eV

  energy without entropy =      -42.16222147  energy(sigma->0) =      -42.16222147


--------------------------------------------------------------------------------------------------------




 average (electrostatic) potential at core
  the test charge radii are     0.9892  0.6991
  (the norm of the test charge is              1.0000)
       1 -92.3325       2 -92.3325       3 -92.3325       4 -56.7290       5 -56.7290
       6 -56.7290
 
 
 
 E-fermi :  -3.3990     XC(G=0):  -1.8707     alpha+bet : -1.7640

 Fermi energy:        -3.3989526634

 k-point     1 :       0.0000    0.0000    0.0000
  band No.  band energies     occupation 
      1     -17.2898      2.00000
      2     -13.7531      2.00000
      3     -13.7531      2.00000
      4     -10.8665      2.00000
      5     -10.8665      2.00000
      6      -9.2568      2.00000
      7      -9.2568      2.00000
      8      -7.3715      2.00000
      9      -4.9388      2.00000
     10      -4.9386      2.00000
     11      -3.6101      2.00000
     12      -3.6101      2.00000
     13      -1.0547      0.00000
     14      -1.0547      0.00000
     15      -0.5438      0.00000
     16       1.1049      0.00000

 k-point     2 :       0.1111   -0.0000    0.0000
  band No.  band energies     occupation 
      1     -17.2221      2.00000
      2     -13.9240      2.00000
      3     -13.8630      2.00000
      4     -10.9483      2.00000
      5     -10.8086      2.00000
      6      -8.9941      2.00000
      7      -8.9210      2.00000
      8      -7.3005      2.00000
      9      -5.2413      2.00000
     10      -5.0237      2.00000
     11      -3.8067      2.00000
     12      -3.7420      2.00000
     13      -0.9983      0.00000
     14      -0.8953      0.00000
     15      -0.4271      0.00000
     16       1.1827      0.00000

 k-point     3 :       0.2222   -0.0000    0.0000
  band No.  band energies     occupation 
      1     -17.0203      2.00000
[...]
  band No.  band energies     occupation 
      1     -17.0873      2.00000
      2     -14.1420      2.00000
      3     -14.1420      2.00000
      4     -10.8423      2.00000
      5     -10.8423      2.00000
      6      -8.4603      2.00000
      7      -8.4603      2.00000
      8      -7.1593      2.00000
      9      -5.7871      2.00000
     10      -5.1701      2.00000
     11      -4.0540      2.00000
     12      -4.0540      2.00000
     13      -0.7560      0.00000
     14      -0.7560      0.00000
     15      -0.2254      0.00000
     16       1.3350      0.00000

 k-point     8 :       0.3333    0.1111    0.0000
  band No.  band energies     occupation 
      1     -16.8206      2.00000
      2     -14.6957      2.00000
      3     -14.3590      2.00000
      4     -11.0072      2.00000
      5     -10.3438      2.00000
      6      -7.8371      2.00000
      7      -7.5875      2.00000
      8      -6.8797      2.00000
      9      -6.6699      2.00000
     10      -5.4576      2.00000
     11      -4.6462      2.00000
     12      -4.2999      2.00000
     13      -0.7299      0.00000
     14      -0.1450      0.00000
     15       0.1130      0.00000
     16       1.7068      0.00000

 k-point     9 :       0.4444    0.1111    0.0000
  band No.  band energies     occupation 
      1     -16.4282      2.00000
      2     -15.3278      2.00000
      3     -14.5063      2.00000
      4     -11.1431      2.00000
      5      -9.5844      2.00000
      6      -7.6730      2.00000
      7      -7.1547      2.00000
      8      -6.7749      2.00000
      9      -6.4681      2.00000
     10      -5.9031      2.00000
     11      -5.3125      2.00000
     12      -4.4661      2.00000
     13      -0.7606      0.00000
     14       0.5495      0.00000
     15       0.6722      0.00000
     16       0.6992      0.00000

 k-point    10 :      -0.4444    0.1111   -0.0000
  band No.  band energies     occupation 
      1     -15.9226      2.00000
      2     -15.9225      2.00000
      3     -14.5576      2.00000
      4     -11.1927      2.00000
      5      -8.6705      2.00000
      6      -8.6703      2.00000
      7      -6.4871      2.00000
      8      -6.4868      2.00000
      9      -6.4243      2.00000
     10      -5.9374      2.00000
     11      -5.9373      2.00000
     12      -4.5239      2.00000
     13      -0.7786      0.00000
     14       0.2740      0.00000
     15       1.0581      0.00000
     16       1.0582      0.00000

 k-point    11 :      -0.3333    0.1111   -0.0000
  band No.  band energies     occupation 
      1     -16.4282      2.00000
      2     -15.3278      2.00000
      3     -14.5063      2.00000
      4     -11.1432      2.00000
      5      -9.5846      2.00000
      6      -7.6728      2.00000
      7      -7.1545      2.00000
      8      -6.7748      2.00000
      9      -6.4681      2.00000
     10      -5.9034      2.00000
     11      -5.3126      2.00000
     12      -4.4660      2.00000
     13      -0.7606      0.00000
     14       0.5495      0.00000
     15       0.6721      0.00000
     16       0.6992      0.00000

 k-point    12 :      -0.2222    0.1111   -0.0000
  band No.  band energies     occupation 
      1     -16.8206      2.00000
      2     -14.6957      2.00000
      3     -14.3590      2.00000
      4     -11.0073      2.00000
      5     -10.3440      2.00000
      6      -7.8369      2.00000
      7      -7.5875      2.00000
      8      -6.8796      2.00000
      9      -6.6697      2.00000
     10      -5.4578      2.00000
     11      -4.6463      2.00000
     12      -4.2998      2.00000
     13      -0.7300      0.00000
     14      -0.1451      0.00000
     15       0.1129      0.00000
     16       1.6662      0.00000

 k-point    13 :      -0.1111    0.1111   -0.0000
  band No.  band energies     occupation 
      1     -17.0873      2.00000
      2     -14.1421      2.00000
      3     -14.1419      2.00000
      4     -10.8424      2.00000
      5     -10.8424      2.00000
      6      -8.4603      2.00000
      7      -8.4601      2.00000
      8      -7.1593      2.00000
      9      -5.7869      2.00000
     10      -5.1703      2.00000
     11      -4.0540      2.00000
     12      -4.0539      2.00000
     13      -0.7561      0.00000
     14      -0.7561      0.00000
     15      -0.2254      0.00000
     16       1.3350      0.00000

 k-point    14 :       0.0000    0.2222    0.0000
  band No.  band energies     occupation 
      1     -17.0203      2.00000
      2     -14.4137      2.00000
      3     -14.0639      2.00000
      4     -11.1636      2.00000
      5     -10.4409      2.00000
      6      -8.4260      2.00000
      7      -8.1063      2.00000
      8      -7.0890      2.00000
      9      -5.9983      2.00000
     10      -5.2835      2.00000
     11      -4.3424      2.00000
     12      -3.9810      2.00000
     13      -0.9776      0.00000
     14      -0.3788      0.00000
     15      -0.1277      0.00000
     16       1.4092      0.00000

 k-point    15 :       0.4444    0.2222    0.0000
  band No.  band energies     occupation 
      1     -16.4931      2.00000
      2     -14.9076      2.00000
      3     -14.9076      2.00000
      4     -10.4188      2.00000
      5     -10.4188      2.00000
      6      -7.6123      2.00000
      7      -7.0137      2.00000
      8      -7.0137      2.00000
      9      -6.5363      2.00000
     10      -5.6745      2.00000
     11      -4.8755      2.00000
     12      -4.8755      2.00000
     13      -0.0771      0.00000
     14      -0.0771      0.00000
     15       0.4072      0.00000
     16       1.2229      0.00000

 k-point    16 :      -0.4444    0.2222   -0.0000
  band No.  band energies     occupation 
      1     -16.0478      2.00000
      2     -15.5047      2.00000
      3     -15.0189      2.00000
      4     -10.4851      2.00000
      5      -9.5856      2.00000
      6      -8.6221      2.00000
      7      -6.4638      2.00000
      8      -6.4088      2.00000
      9      -6.0694      2.00000
     10      -6.0046      2.00000
     11      -5.5005      2.00000
     12      -4.9961      2.00000
     13      -0.0750      0.00000
     14       0.4984      0.00000
     15       0.6610      0.00000
     16       0.7765      0.00000

 k-point    17 :      -0.3333    0.2222   -0.0000
  band No.  band energies     occupation 
      1     -16.0478      2.00000
      2     -15.5048      2.00000
      3     -15.0189      2.00000
      4     -10.4852      2.00000
      5      -9.5858      2.00000
      6      -8.6219      2.00000
      7      -6.4634      2.00000
      8      -6.4088      2.00000
      9      -6.0693      2.00000
     10      -6.0050      2.00000
     11      -5.5005      2.00000
     12      -4.9961      2.00000
     13      -0.0751      0.00000
     14       0.4984      0.00000
     15       0.6608      0.00000
     16       0.7776      0.00000

 k-point    18 :      -0.2222    0.2222   -0.0000
  band No.  band energies     occupation 
      1     -16.4931      2.00000
      2     -14.9077      2.00000
      3     -14.9075      2.00000
      4     -10.4190      2.00000
      5     -10.4189      2.00000
      6      -7.6121      2.00000
      7      -7.0137      2.00000
      8      -7.0134      2.00000
      9      -6.5362      2.00000
     10      -5.6748      2.00000
     11      -4.8756      2.00000
     12      -4.8755      2.00000
     13      -0.0773      0.00000
     14      -0.0772      0.00000
     15       0.4071      0.00000
     16       1.2230      0.00000

 k-point    19 :      -0.1111    0.2222    0.0000
  band No.  band energies     occupation 
      1     -16.8206      2.00000
      2     -14.6956      2.00000
      3     -14.3592      2.00000
      4     -11.0074      2.00000
      5     -10.3440      2.00000
      6      -7.8370      2.00000
      7      -7.5872      2.00000
      8      -6.8796      2.00000
      9      -6.6697      2.00000
     10      -5.4578      2.00000
     11      -4.6461      2.00000
     12      -4.3000      2.00000
     13      -0.7301      0.00000
     14      -0.1451      0.00000
     15       0.1129      0.00000
     16       1.6976      0.00000

 k-point    20 :       0.0000    0.3333    0.0000
  band No.  band energies     occupation 
      1     -16.6886      2.00000
      2     -15.0470      2.00000
      3     -14.2363      2.00000
      4     -11.3602      2.00000
      5      -9.7803      2.00000
      6      -7.7340      2.00000
      7      -7.1947      2.00000
      8      -6.9631      2.00000
      9      -6.7412      2.00000
     10      -5.7202      2.00000
     11      -5.0153      2.00000
     12      -4.1835      2.00000
     13      -1.0213      0.00000
     14       0.3001      0.00000
     15       0.3818      0.00000
     16       1.1345      0.00000

 k-point    21 :      -0.3333    0.3333   -0.0000
  band No.  band energies     occupation 
      1     -15.5650      2.00000
      2     -15.5649      2.00000
      3     -15.5649      2.00000
      4      -9.6014      2.00000
      5      -9.6012      2.00000
      6      -9.6012      2.00000
      7      -6.1516      2.00000
      8      -6.1516      2.00000
      9      -6.1512      2.00000
     10      -5.5645      2.00000
     11      -5.5644      2.00000
     12      -5.5644      2.00000
     13       0.5422      0.00000
     14       0.5422      0.00000
     15       0.5427      0.00000
     16       0.7922      0.00000

 k-point    22 :      -0.2222    0.3333    0.0000
  band No.  band energies     occupation 
      1     -16.0477      2.00000
      2     -15.5047      2.00000
      3     -15.0191      2.00000
      4     -10.4853      2.00000
      5      -9.5857      2.00000
      6      -8.6219      2.00000
      7      -6.4637      2.00000
      8      -6.4084      2.00000
      9      -6.0693      2.00000
     10      -6.0049      2.00000
     11      -5.5004      2.00000
     12      -4.9963      2.00000
     13      -0.0752      0.00000
     14       0.4990      0.00000
     15       0.6608      0.00000
     16       0.7787      0.00000

 k-point    23 :      -0.1111    0.3333    0.0000
  band No.  band energies     occupation 
      1     -16.4282      2.00000
      2     -15.3277      2.00000
      3     -14.5065      2.00000
      4     -11.1433      2.00000
      5      -9.5845      2.00000
      6      -7.6728      2.00000
      7      -7.1546      2.00000
      8      -6.7745      2.00000
      9      -6.4680      2.00000
     10      -5.9033      2.00000
     11      -5.3125      2.00000
     12      -4.4662      2.00000
     13      -0.7607      0.00000
     14       0.5495      0.00000
     15       0.6722      0.00000
     16       0.6998      0.00000

 k-point    24 :       0.0000    0.4444    0.0000
  band No.  band energies     occupation 
      1     -16.2356      2.00000
      2     -15.6776      2.00000
      3     -14.3311      2.00000
      4     -11.4687      2.00000
      5      -8.9332      2.00000
      6      -7.9723      2.00000
      7      -7.0056      2.00000
      8      -6.5533      2.00000
      9      -6.3117      2.00000
     10      -6.2658      2.00000
     11      -5.6795      2.00000
     12      -4.2940      2.00000
     13      -1.0634      0.00000
     14       0.3453      0.00000
     15       0.8402      0.00000
     16       1.2351      0.00000

 k-point    25 :      -0.1111    0.4444    0.0000
  band No.  band energies     occupation 
      1     -15.9225      2.00000
      2     -15.9225      2.00000
      3     -14.5578      2.00000
      4     -11.1929      2.00000
      5      -8.6704      2.00000
      6      -8.6704      2.00000
      7      -6.4870      2.00000
      8      -6.4870      2.00000
      9      -6.4239      2.00000
     10      -5.9373      2.00000
     11      -5.9373      2.00000
     12      -4.5241      2.00000
     13      -0.7788      0.00000
     14       0.2746      0.00000
     15       1.0581      0.00000
     16       1.0581      0.00000


--------------------------------------------------------------------------------------------------------


 soft charge-density along one line, spin component           1
         0         1         2         3         4         5         6         7         8         9
 total charge-density along one line
 
 pseudopotential strength for first ion, spin component:           1
 19.491  27.200  -0.000   0.000   0.000  -0.000   0.000   0.000
 27.200  37.963  -0.000   0.000   0.000  -0.000   0.000   0.000
 -0.000  -0.000   4.340   0.000  -0.000   8.094   0.000  -0.000
  0.000   0.000   0.000   4.344   0.000   0.000   8.103   0.000
  0.000   0.000  -0.000   0.000   4.340  -0.000   0.000   8.094
 -0.000  -0.000   8.094   0.000  -0.000  15.108   0.000  -0.000
  0.000   0.000   0.000   8.103   0.000   0.000  15.123   0.000
  0.000   0.000  -0.000   0.000   8.094  -0.000   0.000  15.108
 total augmentation occupancy for first ion, spin component:           1
  7.981  -3.510   0.000   0.000  -0.000  -0.000   0.000   0.000
 -3.510   1.665  -0.000   0.000   0.000   0.000   0.000  -0.000
  0.000  -0.000   4.999   0.000  -0.000  -1.389  -0.000   0.000
  0.000  -0.000   0.000   1.674   0.000  -0.000  -0.324  -0.000
 -0.000   0.000  -0.000   0.000   4.998  -0.000  -0.000  -1.389
 -0.000   0.000  -1.389  -0.000   0.000   0.401   0.000  -0.000
  0.000   0.000  -0.000  -0.324  -0.000   0.000   0.064   0.000
  0.000  -0.000   0.000  -0.000  -1.389  -0.000   0.000   0.401


------------------------ aborting loop because EDIFF is reached ----------------------------------------


    CHARGE:  cpu time      0.0981: real time      0.0983
    FORLOC:  cpu time      0.0040: real time      0.0040
    FORNL :  cpu time      0.1076: real time      0.1078
    STRESS:  cpu time      0.2051: real time      0.2055
    FORCOR:  cpu time      0.0536: real time      0.0551
    FORHAR:  cpu time      0.0189: real time      0.0190
    MIXING:  cpu time      0.0045: real time      0.0045
    OFIELD:  cpu time      0.0001: real time      0.0001

  FORCE on cell =-STRESS in cart. coord.  units (eV):
  Direction    XX          YY          ZZ          XY          YZ          ZX
  --------------------------------------------------------------------------------------
  Alpha Z     3.60444     3.60444     3.60444
  Ewald    3406.31333  3406.32108 -4048.75047    -0.00000    -0.00000     0.00000
  Hartree  3347.00528  3347.00805 -3290.14252     0.00000    -0.00000    -0.00000
  E(xc)     -83.41005   -83.41017   -84.05481     0.00000    -0.00000     0.00000
  Local   -7032.21930 -7032.22868  7050.73936     0.00001    -0.00000    -0.00000
  n-local   116.37212   116.37256    83.46918     0.27963    -0.00000    -0.00000
  augment   -18.51030   -18.51038   -16.32199    -0.00002    -0.00000     0.00000
  Kinetic   260.83999   260.84693   301.43836    -2.15321     0.00000    -0.00000
  Fock        0.00000     0.00000     0.00000     0.00000     0.00000     0.00000
  -------------------------------------------------------------------------------------
  Total      -0.00450     0.00383    -0.01847     0.00000    -0.00000    -0.00000
  in kB      -0.01247     0.01061    -0.05118     0.00000    -0.00000    -0.00000
  external pressure =       -0.02 kB  Pullay stress =        0.00 kB


 VOLUME and BASIS-vectors are now :
 -----------------------------------------------------------------------------
  energy-cutoff  :      520.00
  volume of cell :      578.34
      direct lattice vectors                 reciprocal lattice vectors
     5.362921492  0.000000000  0.000000000     0.186465530 -0.107659675 -0.000000000
     2.681460746  4.644264457  0.000000000     0.000000000  0.215319349 -0.000000000
     0.000000000  0.000000000 23.220000000     0.000000000  0.000000000  0.043066322

  length of vectors
     5.362921492  5.362781375 23.220000000     0.215313723  0.215319349  0.043066322


 FORCES acting on ions
    electron-ion (+dipol)            ewald-force                    non-local-force                 convergence-correction
 -----------------------------------------------------------------------------------------------
   -.640E-02 -.169E-05 -.108E-07   0.448E-02 0.000E+00 0.100E-18   0.239E-02 -.457E-17 -.318E-24   -.711E-08 -.342E-10 -.112E-13
   -.640E-02 -.293E-06 0.106E-07   0.448E-02 0.145E-10 -.156E-19   0.239E-02 0.375E-17 -.362E-24   -.711E-08 -.341E-10 -.112E-13
   -.640E-02 -.326E-05 -.757E-10   0.448E-02 -.145E-10 -.924E-19   0.239E-02 0.410E-17 -.470E-24   -.711E-08 -.343E-10 -.112E-13
   0.402E-02 -.138E-06 -.159E-07   -.448E-02 -.115E-14 -.145E-18   -.301E-05 -.133E-17 0.724E-25   0.136E-07 0.773E-10 -.625E-16
   0.401E-02 -.781E-05 0.158E-07   -.448E-02 -.145E-10 0.107E-18   -.301E-05 0.430E-17 0.146E-24   0.136E-07 0.778E-10 0.735E-16
   0.401E-02 0.736E-05 -.289E-10   -.448E-02 0.145E-10 0.490E-19   -.301E-05 0.604E-17 0.129E-25   0.136E-07 0.769E-10 0.305E-15
 -----------------------------------------------------------------------------------------------
   -.715E-02 -.583E-05 -.310E-09   -.253E-14 -.171E-15 0.372E-20   0.715E-02 0.123E-16 -.918E-24   0.194E-07 0.129E-09 -.334E-13
 
 
 POSITION                                       TOTAL-FORCE (eV/Angst)
 -----------------------------------------------------------------------------------
      1.78764      0.00000     11.61000         0.000468     -0.000000     -0.000000
      1.78764      3.09618     11.61000         0.000468     -0.000000     -0.000000
      4.46910      1.54809     11.61000         0.000468     -0.000000     -0.000000
      3.57528      0.00000     11.61000        -0.000468      0.000000      0.000000
      6.25674      1.54809     11.61000        -0.000468      0.000000      0.000000
      3.57528      3.09618     11.61000        -0.000468      0.000000      0.000000
 -----------------------------------------------------------------------------------
    total drift:                                0.000003     -0.000006     -0.000000


--------------------------------------------------------------------------------------------------------



  FREE ENERGIE OF THE ION-ELECTRON SYSTEM (eV)
  ---------------------------------------------------
  free  energy   TOTEN  =       -42.16222147 eV

  energy  without entropy=      -42.16222147  energy(sigma->0) =      -42.16222147
 


--------------------------------------------------------------------------------------------------------


    POTLOK:  cpu time      0.0476: real time      0.0477


--------------------------------------------------------------------------------------------------------




--------------------------------------------------------------------------------------------------------


  
 reached required accuracy - stopping structural energy minimisation
 writing wavefunctions
     LOOP+:  cpu time     31.5877: real time     31.6626
    4ORBIT:  cpu time      0.0000: real time      0.0000

 total amount of memory used by VASP MPI-rank0    45685. kBytes
=======================================================================

   base      :      30000. kBytes
   nonl-proj :       3282. kBytes
   fftplans  :       3465. kBytes
   grid      :       5723. kBytes
   one-center:          3. kBytes
   wavefun   :       3212. kBytes
 
  
  
 General timing and accounting informations for this job:
 ========================================================
  
                  Total CPU time used (sec):       36.041
                            User time (sec):       33.946
                          System time (sec):        2.095
                         Elapsed time (sec):       37.461
  
                   Maximum memory used (kb):       97728.
                   Average memory used (kb):          N/A
  
                          Minor page faults:        42186
                          Major page faults:            0
                 Voluntary context switches:         6371
