
 running on   32 total cores
 distrk:  each k-point on   32 cores,    1 groups
 distr:  one band on   16 cores,    2 groups
 vasp.6.3.1 04May22 (build Aug 04 2022 13:02:54) complex                        
  
 POSCAR found type information on POSCAR SiC 
 POSCAR found :  2 types and       6 ions
 scaLAPACK will be used
 -----------------------------------------------------------------------------
|                                                                             |
|           W    W    AA    RRRRR   N    N  II  N    N   GGGG   !!!           |
|           W    W   A  A   R    R  NN   N  II  NN   N  G    G  !!!           |
|           W    W  A    A  R    R  N N  N  II  N N  N  G       !!!           |
|           W WW W  AAAAAA  RRRRR   N  N N  II  N  N N  G  GGG   !            |
|           WW  WW  A    A  R   R   N   NN  II  N   NN  G    G                |
|           W    W  A    A  R    R  N    N  II  N    N   GGGG   !!!           |
|                                                                             |
|     For optimal performance we recommend to set                             |
|       NCORE = 2 up to number-of-cores-per-socket                            |
|     NCORE specifies how many cores store one orbital (NPAR=cpu/NCORE).      |
|     This setting can greatly improve the performance of VASP for DFT.       |
|     The default, NCORE=1 might be grossly inefficient on modern             |
|     multi-core architectures or massively parallel machines. Do your        |
|     own testing! More info at https://www.vasp.at/wiki/index.php/NCORE      |
|     Unfortunately you need to use the default for GW and RPA                |
|     calculations (for HF NCORE is supported but not extensively tested      |
|     yet).                                                                   |
|                                                                             |
 -----------------------------------------------------------------------------

 LDA part: xc-table for Pade appr. of Perdew
 POSCAR, INCAR and KPOINTS ok, starting setup
 FFT: planning ... GRIDC
 FFT: planning ... GRID_SOFT
 FFT: planning ... GRID
 WAVECAR not read
 entering main loop
       N       E                     dE             d eps       ncg     rms          rms(c)
DAV:   1     0.180887922120E+03    0.18089E+03   -0.74647E+03   864   0.993E+02
DAV:   2    -0.858893338495E+01   -0.18948E+03   -0.18453E+03  1272   0.188E+02
DAV:   3    -0.491330903453E+02   -0.40544E+02   -0.40123E+02  1112   0.953E+01
DAV:   4    -0.506561213512E+02   -0.15230E+01   -0.15217E+01  1072   0.247E+01
DAV:   5    -0.506916617909E+02   -0.35540E-01   -0.35511E-01  1248   0.339E+00    0.168E+01
DAV:   6    -0.425911433047E+02    0.81005E+01   -0.35332E+01   880   0.284E+01    0.689E+00
DAV:   7    -0.423544512479E+02    0.23669E+00   -0.15465E+00  1128   0.655E+00    0.329E+00
DAV:   8    -0.422080643799E+02    0.14639E+00   -0.17844E-01  1144   0.250E+00    0.106E+00
DAV:   9    -0.421690401897E+02    0.39024E-01   -0.49592E-02  1080   0.126E+00    0.264E-01
DAV:  10    -0.421606126245E+02    0.84276E-02   -0.12597E-02  1248   0.497E-01    0.191E-01
DAV:  11    -0.421550821417E+02    0.55305E-02   -0.87632E-03  1096   0.482E-01    0.898E-02
DAV:  12    -0.421567666303E+02   -0.16845E-02   -0.67270E-04   968   0.156E-01    0.419E-02
DAV:  13    -0.421575419186E+02   -0.77529E-03   -0.21398E-03   976   0.176E-01    0.407E-02
DAV:  14    -0.421597872617E+02   -0.22453E-02   -0.18521E-04  1032   0.573E-02    0.196E-02
DAV:  15    -0.421612767272E+02   -0.14895E-02   -0.23018E-04   920   0.576E-02    0.199E-02
DAV:  16    -0.421620145883E+02   -0.73786E-03   -0.81016E-05  1040   0.283E-02    0.122E-02
DAV:  17    -0.421620795353E+02   -0.64947E-04   -0.56695E-06  1144   0.116E-02    0.202E-03
DAV:  18    -0.421622065048E+02   -0.12697E-03   -0.11069E-05  1008   0.962E-03    0.279E-03
DAV:  19    -0.421622150074E+02   -0.85026E-05   -0.14488E-07  1128   0.191E-03    0.971E-04
DAV:  20    -0.421622207571E+02   -0.57497E-05   -0.18943E-07   920   0.189E-03    0.501E-04
DAV:  21    -0.421622212515E+02   -0.49434E-06   -0.45330E-09   888   0.380E-04    0.293E-04
DAV:  22    -0.421622214562E+02   -0.20472E-06   -0.37129E-09   744   0.327E-04    0.604E-05
DAV:  23    -0.421622214689E+02   -0.12730E-07   -0.43916E-10   864   0.132E-04    0.327E-05
DAV:  24    -0.421622214697E+02   -0.80217E-09   -0.10556E-10   760   0.680E-05
   1 F= -.42162221E+02 E0= -.42162221E+02  d E =-.421622E+02
 curvature:   0.00 expect dE= 0.000E+00 dE for cont linesearch  0.000E+00
 trial: gam= 0.00000 g(F)=  0.633E-07 g(S)=  0.281E-06 ort = 0.000E+00 (trialstep = 0.100E+01)
 search vector abs. value=  0.344E-06
 reached required accuracy - stopping structural energy minimisation
 writing wavefunctions
