   2   2   0   0
  0.3165331E+02  0.2468133E-09  0.2468133E-09  0.1200000E-08  0.5000000E-15
  1.000000000000000E-004
  CAR 
 unknown system                          
     14.02096759    -25.68201146  301     -1.82937702      1.00000000
    -25.682  0.0000E+00  0.0000E+00
    -25.550  0.0000E+00  0.0000E+00
    -25.417  0.0000E+00  0.0000E+00
    -25.285  0.0000E+00  0.0000E+00
    -25.153  0.0000E+00  0.0000E+00
    -25.020  0.0000E+00  0.0000E+00
    -24.888  0.0000E+00  0.0000E+00
    -24.756  0.0000E+00  0.0000E+00
    -24.623  0.0000E+00  0.0000E+00
    -24.491  0.0000E+00  0.0000E+00
    -24.359  0.0000E+00  0.0000E+00
    -24.226  0.0000E+00  0.0000E+00
    -24.094  0.2111E-10  0.2794E-11
    -23.962  0.4020E-03  0.5320E-04
    -23.829  0.9348E-01  0.1243E-01
    -23.697  0.2459E+00  0.4496E-01
    -23.565  0.3849E+00  0.9590E-01
    -23.432  0.1620E+00  0.1173E+00
    -23.300  0.4096E+00  0.1716E+00
    -23.167  0.2778E+00  0.2083E+00
    -23.035  0.1520E+00  0.2284E+00
    -22.903  0.2459E+00  0.2610E+00
    -22.770  0.5857E+00  0.3385E+00
    -22.638  0.7373E-01  0.3483E+00
    -22.506  0.2135E+00  0.3765E+00
    -22.373  0.3077E+00  0.4172E+00
    -22.241  0.4137E+00  0.4720E+00
    -22.109  0.3979E+00  0.5246E+00
    -21.976  0.8596E-02  0.5258E+00
    -21.844  0.2643E+00  0.5608E+00
    -21.712  0.3473E+00  0.6067E+00
    -21.579  0.4980E+00  0.6726E+00
    -21.447  0.2666E+00  0.7079E+00
    -21.315  0.2946E+00  0.7469E+00
    -21.182  0.1397E-03  0.7469E+00
    -21.050  0.1879E+00  0.7718E+00
    -20.918  0.6389E+00  0.8563E+00
    -20.785  0.5175E+00  0.9248E+00
    -20.653  0.5508E-01  0.9321E+00
    -20.521  0.3164E+00  0.9740E+00
    -20.388  0.2432E+00  0.1006E+01
    -20.256  0.4185E-03  0.1006E+01
    -20.124  0.2885E+00  0.1044E+01
    -19.991  0.8232E+00  0.1153E+01
    -19.859  0.2434E+00  0.1186E+01
    -19.727  0.3235E+00  0.1228E+01
    -19.594  0.7524E-03  0.1228E+01
    -19.462  0.4227E+00  0.1284E+01
    -19.330  0.1364E+00  0.1302E+01
    -19.197  0.2314E+00  0.1333E+01
    -19.065  0.5169E+00  0.1402E+01
    -18.933  0.6398E+00  0.1486E+01
    -18.800  0.1671E+00  0.1508E+01
    -18.668  0.4033E+00  0.1562E+01
    -18.535  0.1127E-02  0.1562E+01
    -18.403  0.4256E+00  0.1618E+01
    -18.271  0.1444E+00  0.1637E+01
    -18.138  0.6966E+00  0.1729E+01
    -18.006  0.6843E+00  0.1820E+01
    -17.874  0.4271E+00  0.1877E+01
    -17.741  0.9116E-04  0.1877E+01
    -17.609  0.7473E-11  0.1877E+01
    -17.477  0.6743E-03  0.1877E+01
    -17.344  0.2295E+00  0.1907E+01
    -17.212  0.2040E+00  0.1934E+01
    -17.080  0.4050E+00  0.1988E+01
    -16.947  0.4706E-01  0.1994E+01
    -16.815  0.9763E-01  0.2007E+01
    -16.683  0.2610E+00  0.2041E+01
    -16.550  0.4672E+00  0.2103E+01
    -16.418  0.1107E+00  0.2118E+01
    -16.286  0.2254E+00  0.2148E+01
    -16.153  0.7792E+00  0.2251E+01
    -16.021  0.1734E+00  0.2274E+01
    -15.889  0.1960E+00  0.2300E+01
    -15.756  0.9769E+00  0.2429E+01
    -15.624  0.7074E-01  0.2438E+01
    -15.492  0.7902E-02  0.2439E+01
    -15.359  0.5312E+00  0.2510E+01
    -15.227  0.5585E+00  0.2584E+01
    -15.095  0.2241E-01  0.2586E+01
    -14.962  0.4435E+00  0.2645E+01
    -14.830  0.3936E+00  0.2697E+01
    -14.698  0.2348E-02  0.2698E+01
    -14.565  0.2184E+00  0.2726E+01
    -14.433  0.4289E+00  0.2783E+01
    -14.300  0.1952E+00  0.2809E+01
    -14.168  0.4959E+00  0.2875E+01
    -14.036  0.6041E-01  0.2883E+01
    -13.903  0.6123E-01  0.2891E+01
    -13.771  0.4405E+00  0.2949E+01
    -13.639  0.2242E+00  0.2979E+01
    -13.506  0.5382E+00  0.3050E+01
    -13.374  0.5041E+00  0.3117E+01
    -13.242  0.4176E-02  0.3117E+01
    -13.109  0.1800E+00  0.3141E+01
    -12.977  0.6728E+00  0.3230E+01
    -12.845  0.5454E+00  0.3302E+01
    -12.712  0.1016E-02  0.3302E+01
    -12.580  0.5826E-01  0.3310E+01
    -12.448  0.4192E+00  0.3366E+01
    -12.315  0.3694E+00  0.3415E+01
    -12.183  0.9851E+00  0.3545E+01
    -12.051  0.4401E+00  0.3603E+01
    -11.918  0.2468E+00  0.3636E+01
    -11.786  0.2785E-04  0.3636E+01
    -11.654  0.3257E-09  0.3636E+01
    -11.521  0.8898E-02  0.3637E+01
    -11.389  0.1262E+01  0.3804E+01
    -11.257  0.6549E+00  0.3891E+01
    -11.124  0.3136E+00  0.3932E+01
    -10.992  0.2106E+00  0.3960E+01
    -10.860  0.4737E+00  0.4023E+01
    -10.727  0.1625E+00  0.4044E+01
    -10.595  0.6367E+00  0.4128E+01
    -10.463  0.3939E+00  0.4181E+01
    -10.330  0.1046E+01  0.4319E+01
    -10.198  0.7800E+00  0.4422E+01
    -10.066  0.5690E+00  0.4498E+01
     -9.933  0.1064E+01  0.4638E+01
     -9.801  0.4555E+00  0.4699E+01
     -9.668  0.1214E+01  0.4859E+01
     -9.536  0.6454E+00  0.4945E+01
     -9.404  0.1230E+01  0.5107E+01
     -9.271  0.5005E+00  0.5174E+01
     -9.139  0.1306E+01  0.5347E+01
     -9.007  0.6925E+00  0.5438E+01
     -8.874  0.1908E+00  0.5463E+01
     -8.742  0.1375E+01  0.5645E+01
     -8.610  0.6453E+00  0.5731E+01
     -8.477  0.2901E+00  0.5769E+01
     -8.345  0.4357E+00  0.5827E+01
     -8.213  0.1140E+01  0.5978E+01
     -8.080  0.3371E+00  0.6022E+01
     -7.948  0.6028E+00  0.6102E+01
     -7.816  0.7899E-01  0.6113E+01
     -7.683  0.1321E+01  0.6287E+01
     -7.551  0.7821E+00  0.6391E+01
     -7.419  0.7816E-01  0.6401E+01
     -7.286  0.1725E+00  0.6424E+01
     -7.154  0.5384E+00  0.6495E+01
     -7.022  0.8053E+00  0.6602E+01
     -6.889  0.8953E+00  0.6720E+01
     -6.757  0.2066E+00  0.6748E+01
     -6.625  0.7156E+00  0.6842E+01
     -6.492  0.6024E-01  0.6850E+01
     -6.360  0.3261E+00  0.6894E+01
     -6.228  0.3329E+00  0.6938E+01
     -6.095  0.1136E+01  0.7088E+01
     -5.963  0.4395E+00  0.7146E+01
     -5.831  0.5828E+00  0.7223E+01
     -5.698  0.3979E-01  0.7229E+01
     -5.566  0.4614E+00  0.7290E+01
     -5.433  0.9686E-01  0.7302E+01
     -5.301  0.5187E-03  0.7303E+01
     -5.169  0.2315E+00  0.7333E+01
     -5.036  0.7346E+00  0.7430E+01
     -4.904  0.6404E+00  0.7515E+01
     -4.772  0.6538E+00  0.7602E+01
     -4.639  0.3966E+00  0.7654E+01
     -4.507  0.1589E-02  0.7654E+01
     -4.375  0.2095E+00  0.7682E+01
     -4.242  0.7094E-01  0.7691E+01
     -4.110  0.4421E+00  0.7750E+01
     -3.978  0.6626E+00  0.7838E+01
     -3.845  0.2936E+00  0.7877E+01
     -3.713  0.7949E-04  0.7877E+01
     -3.581  0.1526E-05  0.7877E+01
     -3.448  0.7169E-01  0.7886E+01
     -3.316  0.2079E+00  0.7914E+01
     -3.184  0.2820E-03  0.7914E+01
     -3.051  0.1064E-03  0.7914E+01
     -2.919  0.3219E+00  0.7956E+01
     -2.787  0.2377E+00  0.7988E+01
     -2.654  0.2347E-04  0.7988E+01
     -2.522  0.0000E+00  0.7988E+01
     -2.390  0.0000E+00  0.7988E+01
     -2.257  0.0000E+00  0.7988E+01
     -2.125  0.1036E-16  0.7988E+01
     -1.993  0.3654E-06  0.7988E+01
     -1.860  0.3572E-01  0.7992E+01
     -1.728  0.1505E+00  0.8012E+01
     -1.596  0.3820E-03  0.8012E+01
     -1.463  0.3490E-11  0.8012E+01
     -1.331  0.0000E+00  0.8012E+01
     -1.199  0.0000E+00  0.8012E+01
     -1.066  0.0000E+00  0.8012E+01
     -0.934  0.6629E-06  0.8012E+01
     -0.801  0.9211E-01  0.8025E+01
     -0.669  0.4660E+00  0.8086E+01
     -0.537  0.1598E-02  0.8086E+01
     -0.404  0.1277E+00  0.8103E+01
     -0.272  0.1521E+00  0.8123E+01
     -0.140  0.3912E-04  0.8123E+01
     -0.007  0.3909E-04  0.8123E+01
      0.125  0.3404E+00  0.8169E+01
      0.257  0.1039E+01  0.8306E+01
      0.390  0.7295E+00  0.8403E+01
      0.522  0.2699E+00  0.8438E+01
      0.654  0.2147E-02  0.8439E+01
      0.787  0.4903E+00  0.8503E+01
      0.919  0.3413E+00  0.8549E+01
      1.051  0.5950E-02  0.8549E+01
      1.184  0.3163E+00  0.8591E+01
      1.316  0.2433E+00  0.8623E+01
      1.448  0.3853E+00  0.8674E+01
      1.581  0.7354E+00  0.8772E+01
      1.713  0.1063E+00  0.8786E+01
      1.845  0.2195E+00  0.8815E+01
      1.978  0.2501E+00  0.8848E+01
      2.110  0.6916E+00  0.8940E+01
      2.242  0.3906E+00  0.8991E+01
      2.375  0.5343E+00  0.9062E+01
      2.507  0.1421E+00  0.9081E+01
      2.639  0.6785E+00  0.9171E+01
      2.772  0.1748E+00  0.9194E+01
      2.904  0.8536E+00  0.9307E+01
      3.036  0.1069E+01  0.9448E+01
      3.169  0.4433E+00  0.9507E+01
      3.301  0.4038E+00  0.9560E+01
      3.434  0.1050E+00  0.9574E+01
      3.566  0.9130E+00  0.9695E+01
      3.698  0.1044E+01  0.9833E+01
      3.831  0.8481E+00  0.9945E+01
      3.963  0.7324E+00  0.1004E+02
      4.095  0.1014E+01  0.1018E+02
      4.228  0.7606E+00  0.1028E+02
      4.360  0.8721E+00  0.1039E+02
      4.492  0.9151E+00  0.1051E+02
      4.625  0.2935E+00  0.1055E+02
      4.757  0.1438E+01  0.1074E+02
      4.889  0.1216E+01  0.1090E+02
      5.022  0.2617E+00  0.1094E+02
      5.154  0.2048E+00  0.1097E+02
      5.286  0.1114E+01  0.1111E+02
      5.419  0.7318E+00  0.1121E+02
      5.551  0.1279E+01  0.1138E+02
      5.683  0.1188E+01  0.1154E+02
      5.816  0.5171E+00  0.1160E+02
      5.948  0.9274E+00  0.1173E+02
      6.080  0.3301E+00  0.1177E+02
      6.213  0.1549E+00  0.1179E+02
      6.345  0.6913E+00  0.1188E+02
      6.477  0.2464E+01  0.1221E+02
      6.610  0.9893E+00  0.1234E+02
      6.742  0.1608E+01  0.1255E+02
      6.874  0.1474E+01  0.1275E+02
      7.007  0.1060E+01  0.1289E+02
      7.139  0.5134E+00  0.1296E+02
      7.271  0.2941E+00  0.1299E+02
      7.404  0.1527E+01  0.1320E+02
      7.536  0.1285E+01  0.1337E+02
      7.668  0.2244E+01  0.1366E+02
      7.801  0.1780E+01  0.1390E+02
      7.933  0.1112E+01  0.1405E+02
      8.066  0.4651E+00  0.1411E+02
      8.198  0.4794E-01  0.1411E+02
      8.330  0.7002E+00  0.1421E+02
      8.463  0.8807E+00  0.1432E+02
      8.595  0.9096E+00  0.1444E+02
      8.727  0.2821E+00  0.1448E+02
      8.860  0.4666E+00  0.1454E+02
      8.992  0.7139E+00  0.1464E+02
      9.124  0.1315E+01  0.1481E+02
      9.257  0.9034E+00  0.1493E+02
      9.389  0.9081E+00  0.1505E+02
      9.521  0.1239E+01  0.1522E+02
      9.654  0.6843E+00  0.1531E+02
      9.786  0.5782E+00  0.1538E+02
      9.918  0.5874E+00  0.1546E+02
     10.051  0.9823E+00  0.1559E+02
     10.183  0.3896E+00  0.1564E+02
     10.315  0.1192E-03  0.1564E+02
     10.448  0.9378E-03  0.1564E+02
     10.580  0.4887E+00  0.1571E+02
     10.712  0.1089E+01  0.1585E+02
     10.845  0.1004E+00  0.1586E+02
     10.977  0.4357E-02  0.1586E+02
     11.109  0.2598E+00  0.1590E+02
     11.242  0.1572E-01  0.1590E+02
     11.374  0.1366E-07  0.1590E+02
     11.506  0.8469E-13  0.1590E+02
     11.639  0.6273E-04  0.1590E+02
     11.771  0.1182E+00  0.1592E+02
     11.903  0.1870E+00  0.1594E+02
     12.036  0.4400E+00  0.1600E+02
     12.168  0.9054E-03  0.1600E+02
     12.301  0.6345E-11  0.1600E+02
     12.433  0.0000E+00  0.1600E+02
     12.565  0.0000E+00  0.1600E+02
     12.698  0.0000E+00  0.1600E+02
     12.830  0.0000E+00  0.1600E+02
     12.962  0.0000E+00  0.1600E+02
     13.095  0.0000E+00  0.1600E+02
     13.227  0.0000E+00  0.1600E+02
     13.359  0.0000E+00  0.1600E+02
     13.492  0.0000E+00  0.1600E+02
     13.624  0.0000E+00  0.1600E+02
     13.756  0.0000E+00  0.1600E+02
     13.889  0.0000E+00  0.1600E+02
     14.021  0.0000E+00  0.1600E+02
