    2    2    1    1
  0.3165331E+02  0.2468133E-09  0.2468133E-09  0.1200000E-08  0.5000000E-15
  1.000000000000000E-004
  CAR 
 unknown system                          
      8    169      8
 
  0.0000000E+00  0.0000000E+00  0.0000000E+00  0.3086420E-02
      1        -23.877331   1.000000
      2        -10.684112   1.000000
      3         -5.842061   1.000000
      4         -5.841692   1.000000
      5          1.640262   0.000000
      6          2.770314   0.000000
      7          3.578127   0.000000
      8          7.405888   0.000000
 
  0.5555556E-01  0.0000000E+00  0.0000000E+00  0.1851852E-01
      1        -23.797281   1.000000
      2        -10.586651   1.000000
      3         -6.163397   1.000000
      4         -6.008131   1.000000
      5          1.740221   0.000000
      6          2.870104   0.000000
      7          3.678032   0.000000
      8          7.429456   0.000000
 
  0.1111111E+00  0.0000000E+00  0.0000000E+00  0.1851852E-01
      1        -23.559261   1.000000
      2        -10.294983   1.000000
      3         -7.049782   1.000000
      4         -6.452011   1.000000
      5          2.040155   0.000000
      6          3.169174   0.000000
      7          3.977924   0.000000
      8          7.438578   0.000000
 
  0.1666667E+00  0.0000000E+00  0.0000000E+00  0.1851852E-01
      1        -23.163757   1.000000
      2         -9.811479   1.000000
      3         -8.328839   1.000000
      4         -7.053400   1.000000
      5          2.540036   0.000000
      6          3.666350   0.000000
      7          4.477741   0.000000
      8          7.345332   0.000000
 
  0.2222222E+00  0.0000000E+00  0.0000000E+00  0.1851852E-01
      1        -22.612708   1.000000
      2         -9.831058   1.000000
      3         -9.141194   1.000000
      4         -7.696183   1.000000
      5          3.239469   0.000000
      6          4.357165   0.000000
      7          5.176747   0.000000
      8          7.334043   0.000000
 
  0.2777778E+00  0.0000000E+00  0.0000000E+00  0.1851852E-01
      1        -21.909521   1.000000
      2        -11.429609   1.000000
      3         -8.296921   1.000000
      4         -8.294826   1.000000
      5          4.137460   0.000000
      6          5.158028   0.000000
      7          5.751138   0.000000
      8          6.082219   0.000000
 
  0.3333333E+00  0.0000000E+00  0.0000000E+00  0.1851852E-01
      1        -21.059761   1.000000
      2        -13.037671   1.000000
      3         -8.802624   1.000000
      4         -7.296534   1.000000
      5          3.873706   0.000000
      6          5.231439   0.000000
      7          6.384867   0.000000
      8          6.647485   0.000000
 
  0.3888889E+00  0.0000000E+00  0.0000000E+00  0.1851852E-01
      1        -20.075252   1.000000
      2        -14.592622   1.000000
      3         -9.181444   1.000000
      4         -6.207196   1.000000
      5          2.217773   0.000000
      6          6.407011   0.000000
      7          6.589482   0.000000
      8          7.655305   0.000000
 
  0.4444444E+00  0.0000000E+00  0.0000000E+00  0.1851852E-01
      1        -18.994915   1.000000
      2        -16.025928   1.000000
      3         -9.414999   1.000000
      4         -5.198528   1.000000
      5          0.847029   0.000000
      6          6.345176   0.000000
      7          8.015245   0.000000
      8          9.116714   0.000000
 
  0.5000000E+00  0.0000000E+00  0.0000000E+00  0.9259259E-02
      1        -18.208021   1.000000
      2        -16.932097   1.000000
      3         -9.493819   1.000000
      4         -4.723206   1.000000
      5          0.247796   0.000000
      6          6.305969   0.000000
      7          9.615004   0.000000
      8          9.741188   0.000000
 
  0.1111111E+00  0.5555556E-01  0.0000000E+00  0.1851852E-01
      1        -23.638557   1.000000
      2        -10.392087   1.000000
      3         -6.739699   1.000000
      4         -6.341108   1.000000
      5          1.940185   0.000000
      6          3.069545   0.000000
      7          3.877977   0.000000
      8          7.521488   0.000000
 
  0.1666667E+00  0.5555556E-01  0.0000000E+00  0.3703704E-01
      1        -23.321774   1.000000
      2        -10.004397   1.000000
      3         -7.767251   1.000000
      4         -6.920146   1.000000
      5          2.340184   0.000000
      6          3.467801   0.000000
      7          4.278022   0.000000
      8          7.612436   0.000000
 
  0.2222222E+00  0.5555556E-01  0.0000000E+00  0.3703704E-01
      1        -22.848503   1.000000
      2         -9.427108   1.000000
      3         -9.112484   1.000000
      4         -7.589280   1.000000
      5          2.940001   0.000000
      6          4.062842   0.000000
      7          4.877896   0.000000
      8          7.545327   0.000000
 
  0.2777778E+00  0.5555556E-01  0.0000000E+00  0.3703704E-01
      1        -22.221354   1.000000
      2        -10.633731   1.000000
      3         -8.667445   1.000000
      4         -8.241439   1.000000
      5          3.738981   0.000000
      6          4.842619   0.000000
      7          5.676481   0.000000
      8          6.430115   0.000000
 
  0.3333333E+00  0.5555556E-01  0.0000000E+00  0.3703704E-01
      1        -21.444684   1.000000
      2        -12.219987   1.000000
      3         -8.812468   1.000000
      4         -7.741038   1.000000
      5          4.669504   0.000000
      6          4.735729   0.000000
      7          5.899208   0.000000
      8          6.874580   0.000000
 
  0.3888889E+00  0.5555556E-01  0.0000000E+00  0.3703704E-01
      1        -20.526452   1.000000
      2        -13.792773   1.000000
      3         -9.264585   1.000000
      4         -6.685076   1.000000
      5          2.994609   0.000000
      6          5.925985   0.000000
      7          6.904285   0.000000
      8          7.057907   0.000000
 
  0.4444444E+00  0.5555556E-01  0.0000000E+00  0.3703704E-01
      1        -19.486429   1.000000
      2        -15.289189   1.000000
      3         -9.575864   1.000000
      4         -5.599146   1.000000
      5          1.451988   0.000000
      6          6.737734   0.000000
      7          7.330846   0.000000
      8          8.422490   0.000000
 
  0.5000000E+00  0.5555556E-01  0.0000000E+00  0.3703704E-01
      1        -18.428280   1.000000
      2        -16.581198   1.000000
      3         -9.734184   1.000000
      4         -4.773400   1.000000
      5          0.387842   0.000000
      6          6.665381   0.000000
      7          8.894328   0.000000
      8          9.954713   0.000000
 
  0.2222222E+00  0.1111111E+00  0.0000000E+00  0.1851852E-01
      1        -22.927221   1.000000
      2         -9.522664   1.000000
      3         -8.755534   1.000000
      4         -7.674089   1.000000
      5          2.840260   0.000000
      6          3.964435   0.000000
      7          4.778481   0.000000
      8          8.244855   0.000000
 
  0.2777778E+00  0.1111111E+00  0.0000000E+00  0.3703704E-01
      1        -22.377807   1.000000
      2        -10.000204   1.000000
      3         -8.854732   1.000000
      4         -8.474459   1.000000
      5          3.539864   0.000000
      6          4.655801   0.000000
      7          5.478668   0.000000
      8          6.870818   0.000000
 
  0.3333333E+00  0.1111111E+00  0.0000000E+00  0.3703704E-01
      1        -21.677032   1.000000
      2        -11.434751   1.000000
      3         -9.173090   1.000000
      4         -8.010698   1.000000
      5          4.437978   0.000000
      6          5.256515   0.000000
      7          5.611824   0.000000
      8          6.377307   0.000000
 
  0.3888889E+00  0.1111111E+00  0.0000000E+00  0.3703704E-01
      1        -20.830978   1.000000
      2        -12.947596   1.000000
      3         -9.730371   1.000000
      4         -7.013146   1.000000
      5          3.680641   0.000000
      6          5.532745   0.000000
      7          6.640573   0.000000
      8          7.731576   0.000000
 
  0.4444444E+00  0.1111111E+00  0.0000000E+00  0.3703704E-01
      1        -19.851931   1.000000
      2        -14.447160   1.000000
      3        -10.134963   1.000000
      4         -5.918911   1.000000
      5          2.092041   0.000000
      6          6.819484   0.000000
      7          7.785378   0.000000
      8          7.899848   0.000000
 
  0.5000000E+00  0.1111111E+00  0.0000000E+00  0.3703704E-01
      1        -18.779411   1.000000
      2        -15.847632   1.000000
      3        -10.380301   1.000000
      4         -4.892543   1.000000
      5          0.748796   0.000000
      6          7.661568   0.000000
      7          8.307734   0.000000
      8          9.316678   0.000000
 
 -0.4444444E+00  0.1111111E+00  0.0000000E+00  0.1851852E-01
      1        -17.999933   1.000000
      2        -16.738834   1.000000
      3        -10.462535   1.000000
      4         -4.398572   1.000000
      5          0.145841   0.000000
      6          7.625471   0.000000
      7          9.887251   0.000000
      8         10.022576   0.000000
 
  0.3333333E+00  0.1666667E+00  0.0000000E+00  0.1851852E-01
      1        -21.754752   1.000000
      2        -11.015959   1.000000
      3         -9.464373   1.000000
      4         -8.101069   1.000000
      5          4.338632   0.000000
      6          5.442237   0.000000
      7          5.554867   0.000000
      8          6.278915   0.000000
 
  0.3888889E+00  0.1666667E+00  0.0000000E+00  0.3703704E-01
      1        -20.984227   1.000000
      2        -12.232764   1.000000
      3        -10.294744   1.000000
      4         -7.179863   1.000000
      5          4.110076   0.000000
      6          5.334645   0.000000
      7          6.416506   0.000000
      8          7.276822   0.000000
 
  0.4444444E+00  0.1666667E+00  0.0000000E+00  0.3703704E-01
      1        -20.075271   1.000000
      2        -13.599027   1.000000
      3        -10.880497   1.000000
      4         -6.122918   1.000000
      5          2.609284   0.000000
      6          6.525017   0.000000
      7          7.564257   0.000000
      8          8.564773   0.000000
 
  0.5000000E+00  0.1666667E+00  0.0000000E+00  0.3703704E-01
      1        -19.048827   1.000000
      2        -14.985301   1.000000
      3        -11.251774   1.000000
      4         -5.016451   1.000000
      5          1.177861   0.000000
      6          7.903650   0.000000
      7          8.843908   0.000000
      8          9.119027   0.000000
 
 -0.4444444E+00  0.1666667E+00  0.0000000E+00  0.3703704E-01
      1        -18.008006   1.000000
      2        -16.220132   1.000000
      3        -11.433127   1.000000
      4         -4.138570   1.000000
      5          0.127710   0.000000
      6          9.036917   0.000000
      7          9.463536   0.000000
      8         10.058377   0.000000
 
  0.4444444E+00  0.2222222E+00  0.0000000E+00  0.1851852E-01
      1        -20.150280   1.000000
      2        -13.120350   1.000000
      3        -11.337114   1.000000
      4         -6.192814   1.000000
      5          2.814536   0.000000
      6          6.426032   0.000000
      7          7.445174   0.000000
      8          8.371818   0.000000
 
  0.5000000E+00  0.2222222E+00  0.0000000E+00  0.3703704E-01
      1        -19.189456   1.000000
      2        -14.211915   1.000000
      3        -12.055907   1.000000
      4         -5.091806   1.000000
      5          1.474553   0.000000
      6          7.706544   0.000000
      7          8.576995   0.000000
      8          9.677543   0.000000
 
 -0.4444444E+00  0.2222222E+00  0.0000000E+00  0.3703704E-01
      1        -18.142271   1.000000
      2        -15.414010   1.000000
      3        -12.434426   1.000000
      4         -4.005326   1.000000
      5          0.233522   0.000000
      6          9.162977   0.000000
      7          9.539006   0.000000
      8         10.669499   0.000000
 
 -0.3888889E+00  0.2222222E+00  0.0000000E+00  0.1851852E-01
      1        -17.377066   1.000000
      2        -16.243908   1.000000
      3        -12.551287   1.000000
      4         -3.425177   1.000000
      5         -0.400570   0.000000
      6          9.844136   0.000000
      7         10.616417   0.000000
      8         10.672612   0.000000
 
 -0.4444444E+00  0.2777778E+00  0.0000000E+00  0.1851852E-01
      1        -18.198034   1.000000
      2        -14.916966   1.000000
      3        -12.994183   1.000000
      4         -3.967428   1.000000
      5          0.297317   0.000000
      6          9.063795   0.000000
      7          9.332083   0.000000
      8         11.053277   0.000000
 
 -0.3888889E+00  0.2777778E+00  0.0000000E+00  0.3703704E-01
      1        -17.190978   1.000000
      2        -15.797544   1.000000
      3        -13.460409   1.000000
      4         -2.925683   1.000000
      5         -0.766975   0.000000
      6          9.444022   0.000000
      7         10.551419   0.000000
      8         11.931716   0.000000
 
 -0.3333333E+00  0.3333333E+00  0.0000000E+00  0.6172840E-02
      1        -16.345012   1.000000
      2        -16.345012   1.000000
      3        -13.917233   1.000000
      4         -1.829378   0.500010
      5         -1.829376   0.499990
      6          9.293568   0.000000
      7         11.759015   0.000000
      8         11.759019   0.000000
 
  0.0000000E+00  0.0000000E+00  0.0000000E+00  0.0000000E+00
      1        -23.876732   1.000000
      2        -10.684109   1.000000
      3         -5.841904   1.000000
      4         -5.841902   1.000000
      5          1.640264   0.000000
      6          2.770314   0.000000
      7          3.578102   0.000000
      8          7.405697   0.000000
 
  0.1063830E-01  0.1063830E-01  0.0000000E+00  0.0000000E+00
      1        -23.873831   1.000000
      2        -10.680539   1.000000
      3         -5.853955   1.000000
      4         -5.848185   1.000000
      5          1.643929   0.000000
      6          2.773974   0.000000
      7          3.581766   0.000000
      8          7.406752   0.000000
 
  0.2127660E-01  0.2127660E-01  0.0000000E+00  0.0000000E+00
      1        -23.865087   1.000000
      2        -10.669814   1.000000
      3         -5.889990   1.000000
      4         -5.866941   1.000000
      5          1.654924   0.000000
      6          2.784953   0.000000
      7          3.592757   0.000000
      8          7.409994   0.000000
 
  0.3191489E-01  0.3191489E-01  0.0000000E+00  0.0000000E+00
      1        -23.850520   1.000000
      2        -10.651941   1.000000
      3         -5.949636   1.000000
      4         -5.897911   1.000000
      5          1.673249   0.000000
      6          2.803250   0.000000
      7          3.611077   0.000000
      8          7.414962   0.000000
 
  0.4255319E-01  0.4255319E-01  0.0000000E+00  0.0000000E+00
      1        -23.830113   1.000000
      2        -10.626916   1.000000
      3         -6.032296   1.000000
      4         -5.940676   1.000000
      5          1.698906   0.000000
      6          2.828866   0.000000
      7          3.636727   0.000000
      8          7.421235   0.000000
 
  0.5319149E-01  0.5319149E-01  0.0000000E+00  0.0000000E+00
      1        -23.803895   1.000000
      2        -10.594762   1.000000
      3         -6.137170   1.000000
      4         -5.994675   1.000000
      5          1.731894   0.000000
      6          2.861794   0.000000
      7          3.669707   0.000000
      8          7.427992   0.000000
 
  0.6382979E-01  0.6382979E-01  0.0000000E+00  0.0000000E+00
      1        -23.771879   1.000000
      2        -10.555488   1.000000
      3         -6.263288   1.000000
      4         -6.059225   1.000000
      5          1.772215   0.000000
      6          2.902031   0.000000
      7          3.710020   0.000000
      8          7.434382   0.000000
 
  0.7446809E-01  0.7446809E-01  0.0000000E+00  0.0000000E+00
      1        -23.734027   1.000000
      2        -10.509091   1.000000
      3         -6.409514   1.000000
      4         -6.133529   1.000000
      5          1.819870   0.000000
      6          2.949575   0.000000
      7          3.757666   0.000000
      8          7.439705   0.000000
 
  0.8510638E-01  0.8510638E-01  0.0000000E+00  0.0000000E+00
      1        -23.690381   1.000000
      2        -10.455590   1.000000
      3         -6.574651   1.000000
      4         -6.216748   1.000000
      5          1.874860   0.000000
      6          3.004420   0.000000
      7          3.812647   0.000000
      8          7.443051   0.000000
 
  0.9574468E-01  0.9574468E-01  0.0000000E+00  0.0000000E+00
      1        -23.640925   1.000000
      2        -10.394993   1.000000
      3         -6.757404   1.000000
      4         -6.307977   1.000000
      5          1.937184   0.000000
      6          3.066558   0.000000
      7          3.874963   0.000000
      8          7.443714   0.000000
 
  0.1063830E+00  0.1063830E+00  0.0000000E+00  0.0000000E+00
      1        -23.585675   1.000000
      2        -10.327324   1.000000
      3         -6.956447   1.000000
      4         -6.406291   1.000000
      5          2.006842   0.000000
      6          3.135982   0.000000
      7          3.944614   0.000000
      8          7.441018   0.000000
 
  0.1170213E+00  0.1170213E+00  0.0000000E+00  0.0000000E+00
      1        -23.524641   1.000000
      2        -10.252604   1.000000
      3         -7.170434   1.000000
      4         -6.510754   1.000000
      5          2.083834   0.000000
      6          3.212682   0.000000
      7          4.021598   0.000000
      8          7.434381   0.000000
 
  0.1276596E+00  0.1276596E+00  0.0000000E+00  0.0000000E+00
      1        -23.457866   1.000000
      2        -10.170866   1.000000
      3         -7.398050   1.000000
      4         -6.620451   1.000000
      5          2.168157   0.000000
      6          3.296645   0.000000
      7          4.105915   0.000000
      8          7.423433   0.000000
 
  0.1382979E+00  0.1382979E+00  0.0000000E+00  0.0000000E+00
      1        -23.385324   1.000000
      2        -10.082121   1.000000
      3         -7.637999   1.000000
      4         -6.734487   1.000000
      5          2.259811   0.000000
      6          3.387855   0.000000
      7          4.197560   0.000000
      8          7.408002   0.000000
 
  0.1489362E+00  0.1489362E+00  0.0000000E+00  0.0000000E+00
      1        -23.307010   1.000000
      2         -9.986401   1.000000
      3         -7.889032   1.000000
      4         -6.852002   1.000000
      5          2.358792   0.000000
      6          3.486294   0.000000
      7          4.296530   0.000000
      8          7.388143   0.000000
 
  0.1595745E+00  0.1595745E+00  0.0000000E+00  0.0000000E+00
      1        -23.222968   1.000000
      2         -9.883748   1.000000
      3         -8.149960   1.000000
      4         -6.972184   1.000000
      5          2.465098   0.000000
      6          3.591936   0.000000
      7          4.402819   0.000000
      8          7.363844   0.000000
 
  0.1702128E+00  0.1702128E+00  0.0000000E+00  0.0000000E+00
      1        -23.133201   1.000000
      2         -9.774201   1.000000
      3         -8.419640   1.000000
      4         -7.094259   1.000000
      5          2.578725   0.000000
      6          3.704749   0.000000
      7          4.516421   0.000000
      8          7.335411   0.000000
 
  0.1808511E+00  0.1808511E+00  0.0000000E+00  0.0000000E+00
      1        -23.037744   1.000000
      2         -9.657806   1.000000
      3         -8.697004   1.000000
      4         -7.217510   1.000000
      5          2.699669   0.000000
      6          3.824687   0.000000
      7          4.637325   0.000000
      8          7.303148   0.000000
 
  0.1914894E+00  0.1914894E+00  0.0000000E+00  0.0000000E+00
      1        -22.936605   1.000000
      2         -9.534613   1.000000
      3         -8.981075   1.000000
      4         -7.341269   1.000000
      5          2.827926   0.000000
      6          3.951688   0.000000
      7          4.765521   0.000000
      8          7.267450   0.000000
 
  0.2021277E+00  0.2021277E+00  0.0000000E+00  0.0000000E+00
      1        -22.829801   1.000000
      2         -9.404693   1.000000
      3         -9.270905   1.000000
      4         -7.464914   1.000000
      5          2.963489   0.000000
      6          4.085665   0.000000
      7          4.900991   0.000000
      8          7.228832   0.000000
 
  0.2127660E+00  0.2127660E+00  0.0000000E+00  0.0000000E+00
      1        -22.717363   1.000000
      2         -9.565630   1.000000
      3         -9.268118   1.000000
      4         -7.587879   1.000000
      5          3.106352   0.000000
      6          4.226469   0.000000
      7          5.043714   0.000000
      8          7.187698   0.000000
 
  0.2234043E+00  0.2234043E+00  0.0000000E+00  0.0000000E+00
      1        -22.599315   1.000000
      2         -9.864437   1.000000
      3         -9.124967   1.000000
      4         -7.709639   1.000000
      5          3.256513   0.000000
      6          4.373859   0.000000
      7          5.193771   0.000000
      8          7.300467   0.000000
 
  0.2340426E+00  0.2340426E+00  0.0000000E+00  0.0000000E+00
      1        -22.475700   1.000000
      2        -10.166551   1.000000
      3         -8.975332   1.000000
      4         -7.829714   1.000000
      5          3.413952   0.000000
      6          4.527460   0.000000
      7          5.350994   0.000000
      8          6.993919   0.000000
 
  0.2446809E+00  0.2446809E+00  0.0000000E+00  0.0000000E+00
      1        -22.346512   1.000000
      2        -10.471320   1.000000
      3         -8.819329   1.000000
      4         -7.947665   1.000000
      5          3.578664   0.000000
      6          4.686456   0.000000
      7          5.515458   0.000000
      8          6.681973   0.000000
 
  0.2553191E+00  0.2553191E+00  0.0000000E+00  0.0000000E+00
      1        -22.211802   1.000000
      2        -10.778092   1.000000
      3         -8.657089   1.000000
      4         -8.063097   1.000000
      5          3.750635   0.000000
      6          4.849003   0.000000
      7          5.687306   0.000000
      8          6.368285   0.000000
 
  0.2659574E+00  0.2659574E+00  0.0000000E+00  0.0000000E+00
      1        -22.071621   1.000000
      2        -11.086263   1.000000
      3         -8.488766   1.000000
      4         -8.175646   1.000000
      5          3.929849   0.000000
      6          5.009793   0.000000
      7          5.867322   0.000000
      8          6.059311   0.000000
 
  0.2765957E+00  0.2765957E+00  0.0000000E+00  0.0000000E+00
      1        -21.926035   1.000000
      2        -11.395244   1.000000
      3         -8.314540   1.000000
      4         -8.284985   1.000000
      5          4.116298   0.000000
      6          5.147199   0.000000
      7          5.777707   0.000000
      8          6.059597   0.000000
 
  0.2872340E+00  0.2872340E+00  0.0000000E+00  0.0000000E+00
      1        -21.775013   1.000000
      2        -11.704584   1.000000
      3         -8.390804   1.000000
      4         -8.134622   1.000000
      5          4.309956   0.000000
      6          5.153852   0.000000
      7          5.631711   0.000000
      8          6.349743   0.000000
 
  0.2978723E+00  0.2978723E+00  0.0000000E+00  0.0000000E+00
      1        -21.618661   1.000000
      2        -12.013783   1.000000
      3         -8.492840   1.000000
      4         -7.949271   1.000000
      5          4.510793   0.000000
      6          4.931420   0.000000
      7          5.720504   0.000000
      8          6.627899   0.000000
 
  0.3085106E+00  0.3085106E+00  0.0000000E+00  0.0000000E+00
      1        -21.457024   1.000000
      2        -12.322379   1.000000
      3         -8.590846   1.000000
      4         -7.758787   1.000000
      5          4.628808   0.000000
      6          4.718770   0.000000
      7          5.896028   0.000000
      8          6.689471   0.000000
 
  0.3191489E+00  0.3191489E+00  0.0000000E+00  0.0000000E+00
      1        -21.290185   1.000000
      2        -12.629883   1.000000
      3         -8.684590   1.000000
      4         -7.563531   1.000000
      5          4.308152   0.000000
      6          4.933832   0.000000
      7          6.096975   0.000000
      8          6.685233   0.000000
 
  0.3297872E+00  0.3297872E+00  0.0000000E+00  0.0000000E+00
      1        -21.118207   1.000000
      2        -12.936011   1.000000
      3         -8.773881   1.000000
      4         -7.363939   1.000000
      5          3.982522   0.000000
      6          5.155889   0.000000
      7          6.311196   0.000000
      8          6.658192   0.000000
 
  0.3404255E+00  0.3404255E+00  0.0000000E+00  0.0000000E+00
      1        -20.941211   1.000000
      2        -13.240329   1.000000
      3         -8.858543   1.000000
      4         -7.160541   1.000000
      5          3.656275   0.000000
      6          5.384788   0.000000
      7          6.535210   0.000000
      8          6.625574   0.000000
 
  0.3510638E+00  0.3510638E+00  0.0000000E+00  0.0000000E+00
      1        -20.759298   1.000000
      2        -13.542368   1.000000
      3         -8.938406   1.000000
      4         -6.953965   1.000000
      5          3.331816   0.000000
      6          5.620215   0.000000
      7          6.592086   0.000000
      8          6.767682   0.000000
 
  0.3617021E+00  0.3617021E+00  0.0000000E+00  0.0000000E+00
      1        -20.572617   1.000000
      2        -13.841887   1.000000
      3         -9.013323   1.000000
      4         -6.744992   1.000000
      5          3.010845   0.000000
      6          5.861378   0.000000
      7          6.560406   0.000000
      8          7.007961   0.000000
 
  0.3723404E+00  0.3723404E+00  0.0000000E+00  0.0000000E+00
      1        -20.381358   1.000000
      2        -14.138379   1.000000
      3         -9.083174   1.000000
      4         -6.534569   1.000000
      5          2.694981   0.000000
      6          6.105443   0.000000
      7          6.534244   0.000000
      8          7.255687   0.000000
 
  0.3829787E+00  0.3829787E+00  0.0000000E+00  0.0000000E+00
      1        -20.185709   1.000000
      2        -14.431399   1.000000
      3         -9.147810   1.000000
      4         -6.323863   1.000000
      5          2.385908   0.000000
      6          6.333022   0.000000
      7          6.533504   0.000000
      8          7.510625   0.000000
 
  0.3936170E+00  0.3936170E+00  0.0000000E+00  0.0000000E+00
      1        -19.986008   1.000000
      2        -14.720681   1.000000
      3         -9.207162   1.000000
      4         -6.114311   1.000000
      5          2.085418   0.000000
      6          6.422287   0.000000
      7          6.680249   0.000000
      8          7.772596   0.000000
 
  0.4042553E+00  0.4042553E+00  0.0000000E+00  0.0000000E+00
      1        -19.782615   1.000000
      2        -15.005543   1.000000
      3         -9.261118   1.000000
      4         -5.907694   1.000000
      5          1.795656   0.000000
      6          6.413530   0.000000
      7          6.934377   0.000000
      8          8.041462   0.000000
 
  0.4148936E+00  0.4148936E+00  0.0000000E+00  0.0000000E+00
      1        -19.576115   1.000000
      2        -15.285282   1.000000
      3         -9.309600   1.000000
      4         -5.706219   1.000000
      5          1.519090   0.000000
      6          6.394439   0.000000
      7          7.208293   0.000000
      8          8.317062   0.000000
 
  0.4255319E+00  0.4255319E+00  0.0000000E+00  0.0000000E+00
      1        -19.367321   1.000000
      2        -15.558968   1.000000
      3         -9.352529   1.000000
      4         -5.512601   1.000000
      5          1.258697   0.000000
      6          6.375086   0.000000
      7          7.491967   0.000000
      8          8.599267   0.000000
 
  0.4361702E+00  0.4361702E+00  0.0000000E+00  0.0000000E+00
      1        -19.157557   1.000000
      2        -15.825259   1.000000
      3         -9.389867   1.000000
      4         -5.330180   1.000000
      5          1.018007   0.000000
      6          6.357374   0.000000
      7          7.783499   0.000000
      8          8.887898   0.000000
 
  0.4468085E+00  0.4468085E+00  0.0000000E+00  0.0000000E+00
      1        -18.948745   1.000000
      2        -16.082003   1.000000
      3         -9.421548   1.000000
      4         -5.162898   1.000000
      5          0.801137   0.000000
      6          6.341969   0.000000
      7          8.082231   0.000000
      8          9.182767   0.000000
 
  0.4574468E+00  0.4574468E+00  0.0000000E+00  0.0000000E+00
      1        -18.744435   1.000000
      2        -16.325620   1.000000
      3         -9.447524   1.000000
      4         -5.015431   1.000000
      5          0.612906   0.000000
      6          6.329148   0.000000
      7          8.387796   0.000000
      8          9.483599   0.000000
 
  0.4680851E+00  0.4680851E+00  0.0000000E+00  0.0000000E+00
      1        -18.551003   1.000000
      2        -16.549640   1.000000
      3         -9.467750   1.000000
      4         -4.892885   1.000000
      5          0.458540   0.000000
      6          6.319070   0.000000
      7          8.699882   0.000000
      8          9.789971   0.000000
 
  0.4787234E+00  0.4787234E+00  0.0000000E+00  0.0000000E+00
      1        -18.380629   1.000000
      2        -16.741923   1.000000
      3         -9.482224   1.000000
      4         -4.800467   1.000000
      5          0.343329   0.000000
      6          6.311810   0.000000
      7          9.018010   0.000000
      8         10.100992   0.000000
 