       N       E                     dE             d eps       ncg     rms          ort
SDA:   1    -0.211732081194E+02   -0.21173E+02   -0.19921E-01  1352   0.498E-01 0.000E+00
DMP:   2    -0.211880355621E+02   -0.14827E-01   -0.95024E-02  1352   0.144E-01 0.244E-01
DMP:   3    -0.211943717214E+02   -0.63362E-02   -0.27931E-02  1352   0.395E-02 0.793E-02
DMP:   4    -0.211961725044E+02   -0.18008E-02   -0.84804E-03  1352   0.134E-02 0.205E-02
DMP:   5    -0.211967246700E+02   -0.55217E-03   -0.32520E-03  1352   0.580E-03 0.610E-03
DMP:   6    -0.211969450282E+02   -0.22036E-03   -0.16672E-03  1352   0.294E-03 0.322E-03
DMP:   7    -0.211970739442E+02   -0.12892E-03   -0.84778E-04  1352   0.137E-03 0.197E-03
DMP:   8    -0.211971310784E+02   -0.57134E-04   -0.40268E-04  1352   0.606E-04 0.105E-03
DMP:   9    -0.211971664592E+02   -0.35381E-04   -0.18440E-04  1352   0.262E-04 0.521E-04
DMP:  10    -0.211971775445E+02   -0.11085E-04   -0.85960E-05  1352   0.119E-04 0.250E-04
DMP:  11    -0.211971838042E+02   -0.62597E-05   -0.42102E-05  1352   0.576E-05 0.125E-04
DMP:  12    -0.211971948455E+02   -0.11041E-04   -0.22554E-05  1352   0.308E-05 0.670E-05
DMP:  13    -0.211971934258E+02    0.14197E-05   -0.13805E-05  1352   0.190E-05 0.406E-05
DMP:  14    -0.211971924391E+02    0.98670E-06   -0.85588E-06  1352   0.112E-05 0.266E-05
   1 F= -.21197192E+02 E0= -.21197018E+02  d E =-.348265E-03
