 vasp.6.3.0 20Jan22 (build Jan 26 2022 20:51:09) complex                        
  
 executed on             LinuxIFC date 2023.07.15  21:36:40
 running on   30 total cores
 distrk:  each k-point on   30 cores,    1 groups
 distr:  one band on NCORE=  15 cores,    2 groups


--------------------------------------------------------------------------------------------------------


 INCAR:
   ISTART = 1            (Read existing wavefunction
   ICHARG = 1
   ISPIN = 1            (Non-Spin polarised DFT)
   LREAL = .FALSE.       (Projection operators: automatic)
   ENCUT = 520        (Cut-off energy for plane wave basis set, in eV)
   PREC = A       (Precision level)
   LWAVE = .FALSE.        (Write WAVECAR or not)
   LCHARG = .FALSE.        (Write CHGCAR or not)
   ADDGRID = F        (Increase grid
   ISMEAR = 0            (Gaussian smearing
   SIGMA = 0.05         (Smearing value in eV
   NELM = 200
   EDIFF = 1E-6        (SCF energy convergence
   NSW = 0          (Max ionic steps)
   IBRION = -1            (Algorithm: 0-MD
   ISIF = 3           (Stress/relaxation: 2-Ions, 3-Shape/Ions/V, 4-Shape/Ions)
   EDIFFG = -1E-05        (Ionic convergence
   NCORE = 15
   LHFCALC = .TRUE.
   HFSCREEN = 0.2
   ALGO = Damped
   TIME = 0.4

 POTCAR:    PAW_PBE C 08Apr2002                   
 -----------------------------------------------------------------------------
|                                                                             |
|           W    W    AA    RRRRR   N    N  II  N    N   GGGG   !!!           |
|           W    W   A  A   R    R  NN   N  II  NN   N  G    G  !!!           |
|           W    W  A    A  R    R  N N  N  II  N N  N  G       !!!           |
|           W WW W  AAAAAA  RRRRR   N  N N  II  N  N N  G  GGG   !            |
|           WW  WW  A    A  R   R   N   NN  II  N   NN  G    G                |
|           W    W  A    A  R    R  N    N  II  N    N   GGGG   !!!           |
|                                                                             |
|     For optimal performance we recommend to set                             |
|       NCORE = 2 up to number-of-cores-per-socket                            |
|     NCORE specifies how many cores store one orbital (NPAR=cpu/NCORE).      |
|     This setting can greatly improve the performance of VASP for DFT.       |
|     The default, NCORE=1 might be grossly inefficient on modern             |
|     multi-core architectures or massively parallel machines. Do your        |
|     own testing! More info at https://www.vasp.at/wiki/index.php/NCORE      |
|     Unfortunately you need to use the default for GW and RPA                |
|     calculations (for HF NCORE is supported but not extensively tested      |
|     yet).                                                                   |
|                                                                             |
 -----------------------------------------------------------------------------

 POTCAR:    PAW_PBE C 08Apr2002                   
   VRHFIN =C: s2p2                                                                                  
   LEXCH  = PE                                                                                      
   EATOM  =   147.1560 eV,   10.8157 Ry                                                             
                                                                                                    
   TITEL  = PAW_PBE C 08Apr2002                                                                     
   LULTRA =        F    use ultrasoft PP ?                                                          
   IUNSCR =        1    unscreen: 0-lin 1-nonlin 2-no                                               
   RPACOR =    1.200    partial core radius                                                         
   POMASS =   12.011; ZVAL   =    4.000    mass and valenz                                          
   RCORE  =    1.500    outmost cutoff radius                                                       
   RWIGS  =    1.630; RWIGS  =    0.863    wigner-seitz radius (au A)                               
   ENMAX  =  400.000; ENMIN  =  300.000 eV                                                          
   ICORE  =        2    local potential                                                             
   LCOR   =        T    correct aug charges                                                         
   LPAW   =        T    paw PP                                                                      
   EAUG   =  644.873                                                                                
   DEXC   =    0.000                                                                                
   RMAX   =    1.529    core radius for proj-oper                                                   
   RAUG   =    1.300    factor for augmentation sphere                                              
   RDEP   =    1.501    radius for radial grids                                                     
   RDEPT  =    1.300    core radius for aug-charge                                                  
                                                                                                    
   Atomic configuration                                                                             
    4 entries                                                                                       
     n  l   j            E        occ.                                                              
     1  0  0.50      -273.3789   2.0000                                                             
     2  0  0.50       -13.7508   2.0000                                                             
     2  1  0.50        -5.2854   2.0000                                                             
     3  2  1.50        -5.4423   0.0000                                                             
   Description                                                                                      
     l       E           TYP  RCUT    TYP  RCUT                                                     
     0    -13.7508458     23  1.200                                                                 
     0     -8.2022199     23  1.200                                                                 
     1     -5.2854383     23  1.500                                                                 
     1     34.0145650     23  1.500                                                                 
     2     -5.4423304      7  1.500                                                                 
  local pseudopotential read in
  partial core-charges read in
  partial kinetic energy density read in
  atomic valenz-charges read in
  non local Contribution for L=           0  read in
    real space projection operators read in
  non local Contribution for L=           0  read in
    real space projection operators read in
  non local Contribution for L=           1  read in
    real space projection operators read in
  non local Contribution for L=           1  read in
    real space projection operators read in
    PAW grid and wavefunctions read in
 
   number of l-projection  operators is LMAX  =           4
   number of lm-projection operators is LMMAX =           8
 
  PAW_PBE C 08Apr2002                   :
 energy of atom  1       EATOM= -147.1560
 kinetic energy error for atom=    0.0071 (will be added to EATOM!!)
 
 
 POSCAR: C4
  positions in direct lattice
  velocities in cartesian coordinates
 exchange correlation table for  LEXCH =        8
   RHO(1)=    0.500       N(1)  =     2000
   RHO(2)=  100.500       N(2)  =     4000
 


--------------------------------------------------------------------------------------------------------


 ion  position               nearest neighbor table
   1  0.000  0.000  0.500-   2 1.42   2 1.42   2 1.42
   2  0.333  0.333  0.500-   1 1.42   1 1.42   1 1.42
 
  LATTYP: Found a hexagonal cell.
 ALAT       =     2.4681332416
 C/A-ratio  =     4.8619741422
  
  Lattice vectors:
  
 A1 = (  -1.2340666208,  -2.1374660871,   0.0000000000)
 A2 = (   2.4681332416,   0.0000000000,   0.0000000000)
 A3 = (   0.0000000000,   0.0000000000,  12.0000000000)


Analysis of symmetry for initial positions (statically):
=====================================================================
 Subroutine PRICEL returns:
 Original cell was already a primitive cell.
 

 Routine SETGRP: Setting up the symmetry group for a 
 hexagonal supercell.


 Subroutine GETGRP returns: Found 24 space group operations
 (whereof 12 operations were pure point group operations)
 out of a pool of 24 trial point group operations.


The static configuration has the point symmetry D_3h.
 The point group associated with its full space group is D_6h.


Analysis of symmetry for dynamics (positions and initial velocities):
=====================================================================
 Subroutine PRICEL returns:
 Original cell was already a primitive cell.
 

 Routine SETGRP: Setting up the symmetry group for a 
 hexagonal supercell.


 Subroutine GETGRP returns: Found 24 space group operations
 (whereof 12 operations were pure point group operations)
 out of a pool of 24 trial point group operations.


The dynamic configuration has the point symmetry D_3h.
 The point group associated with its full space group is D_6h.


 Subroutine INISYM returns: Found 24 space group operations
 (whereof 12 operations are pure point group operations),
 and found     1 'primitive' translations


----------------------------------------------------------------------------------------

                                     Primitive cell                                     

  volume of cell :      63.3066

  direct lattice vectors                    reciprocal lattice vectors
     2.468133242  0.000000000  0.000000000     0.405164512 -0.233921840  0.000000000
     1.234066621  2.137466087  0.000000000     0.000000000  0.467843680  0.000000000
     0.000000000  0.000000000 12.000000000     0.000000000  0.000000000  0.083333333

  length of vectors
     2.468133242  2.468133242 12.000000000     0.467843680  0.467843680  0.083333333

  position of ions in fractional coordinates (direct lattice)
     0.000000000  0.000000000  0.500000000
     0.333333343  0.333333343  0.500000000

  ion indices of the primitive-cell ions
   primitive index   ion index
                 1           1
                 2           2

----------------------------------------------------------------------------------------

 
 
 KPOINTS: 0.030  18  18   1   37  0.030  132    3 

Read explicit list of k-points.

 Found    169 k-points:

 Following reciprocal coordinates:
            Coordinates               Weight
  0.000000  0.000000  0.000000      0.003086
  0.055556  0.000000  0.000000      0.018519
  0.111111  0.000000  0.000000      0.018519
  0.166667  0.000000  0.000000      0.018519
  0.222222  0.000000  0.000000      0.018519
  0.277778  0.000000  0.000000      0.018519
  0.333333  0.000000  0.000000      0.018519
  0.388889  0.000000  0.000000      0.018519
  0.444444  0.000000  0.000000      0.018519
  0.500000  0.000000  0.000000      0.009259
  0.111111  0.055556  0.000000      0.018519
  0.166667  0.055556  0.000000      0.037037
  0.222222  0.055556  0.000000      0.037037
  0.277778  0.055556  0.000000      0.037037
  0.333333  0.055556  0.000000      0.037037
  0.388889  0.055556  0.000000      0.037037
  0.444444  0.055556  0.000000      0.037037
  0.500000  0.055556  0.000000      0.037037
  0.222222  0.111111  0.000000      0.018519
  0.277778  0.111111  0.000000      0.037037
  0.333333  0.111111  0.000000      0.037037
  0.388889  0.111111  0.000000      0.037037
  0.444444  0.111111  0.000000      0.037037
  0.500000  0.111111  0.000000      0.037037
 -0.444444  0.111111  0.000000      0.018519
  0.333333  0.166667  0.000000      0.018519
  0.388889  0.166667  0.000000      0.037037
  0.444444  0.166667  0.000000      0.037037
  0.500000  0.166667  0.000000      0.037037
 -0.444444  0.166667  0.000000      0.037037
  0.444444  0.222222  0.000000      0.018519
  0.500000  0.222222  0.000000      0.037037
 -0.444444  0.222222  0.000000      0.037037
 -0.388889  0.222222  0.000000      0.018519
 -0.444444  0.277778  0.000000      0.018519
 -0.388889  0.277778  0.000000      0.037037
 -0.333333  0.333333  0.000000      0.006173
  0.000000  0.000000  0.000000      0.000000
  0.010638  0.010638  0.000000      0.000000
  0.021277  0.021277  0.000000      0.000000
  0.031915  0.031915  0.000000      0.000000
  0.042553  0.042553  0.000000      0.000000
  0.053191  0.053191  0.000000      0.000000
  0.063830  0.063830  0.000000      0.000000
  0.074468  0.074468  0.000000      0.000000
  0.085106  0.085106  0.000000      0.000000
  0.095745  0.095745  0.000000      0.000000
  0.106383  0.106383  0.000000      0.000000
  0.117021  0.117021  0.000000      0.000000
  0.127660  0.127660  0.000000      0.000000
  0.138298  0.138298  0.000000      0.000000
  0.148936  0.148936  0.000000      0.000000
  0.159574  0.159574  0.000000      0.000000
  0.170213  0.170213  0.000000      0.000000
  0.180851  0.180851  0.000000      0.000000
  0.191489  0.191489  0.000000      0.000000
  0.202128  0.202128  0.000000      0.000000
  0.212766  0.212766  0.000000      0.000000
  0.223404  0.223404  0.000000      0.000000
  0.234043  0.234043  0.000000      0.000000
  0.244681  0.244681  0.000000      0.000000
  0.255319  0.255319  0.000000      0.000000
  0.265957  0.265957  0.000000      0.000000
  0.276596  0.276596  0.000000      0.000000
  0.287234  0.287234  0.000000      0.000000
  0.297872  0.297872  0.000000      0.000000
  0.308511  0.308511  0.000000      0.000000
  0.319149  0.319149  0.000000      0.000000
  0.329787  0.329787  0.000000      0.000000
  0.340426  0.340426  0.000000      0.000000
  0.351064  0.351064  0.000000      0.000000
  0.361702  0.361702  0.000000      0.000000
  0.372340  0.372340  0.000000      0.000000
  0.382979  0.382979  0.000000      0.000000
  0.393617  0.393617  0.000000      0.000000
  0.404255  0.404255  0.000000      0.000000
  0.414894  0.414894  0.000000      0.000000
  0.425532  0.425532  0.000000      0.000000
  0.436170  0.436170  0.000000      0.000000
  0.446809  0.446809  0.000000      0.000000
  0.457447  0.457447  0.000000      0.000000
  0.468085  0.468085  0.000000      0.000000
  0.478723  0.478723  0.000000      0.000000
  0.489362  0.489362  0.000000      0.000000
  0.500000  0.500000  0.000000      0.000000
  0.500000  0.500000  0.000000      0.000000
  0.493827  0.506173  0.000000      0.000000
  0.487654  0.512346  0.000000      0.000000
  0.481481  0.518519  0.000000      0.000000
  0.475309  0.524691  0.000000      0.000000
  0.469136  0.530864  0.000000      0.000000
  0.462963  0.537037  0.000000      0.000000
  0.456790  0.543210  0.000000      0.000000
  0.450617  0.549383  0.000000      0.000000
  0.444444  0.555556  0.000000      0.000000
  0.438272  0.561728  0.000000      0.000000
  0.432099  0.567901  0.000000      0.000000
  0.425926  0.574074  0.000000      0.000000
  0.419753  0.580247  0.000000      0.000000
  0.413580  0.586420  0.000000      0.000000
  0.407407  0.592593  0.000000      0.000000
  0.401235  0.598765  0.000000      0.000000
  0.395062  0.604938  0.000000      0.000000
  0.388889  0.611111  0.000000      0.000000
  0.382716  0.617284  0.000000      0.000000
  0.376543  0.623457  0.000000      0.000000
  0.370370  0.629630  0.000000      0.000000
  0.364198  0.635802  0.000000      0.000000
  0.358025  0.641975  0.000000      0.000000
  0.351852  0.648148  0.000000      0.000000
  0.345679  0.654321  0.000000      0.000000
  0.339506  0.660494  0.000000      0.000000
  0.333333  0.666667  0.000000      0.000000
  0.333333  0.666667  0.000000      0.000000
  0.327273  0.654545  0.000000      0.000000
  0.321212  0.642424  0.000000      0.000000
  0.315152  0.630303  0.000000      0.000000
  0.309091  0.618182  0.000000      0.000000
  0.303030  0.606061  0.000000      0.000000
  0.296970  0.593939  0.000000      0.000000
  0.290909  0.581818  0.000000      0.000000
  0.284848  0.569697  0.000000      0.000000
  0.278788  0.557576  0.000000      0.000000
  0.272727  0.545455  0.000000      0.000000
  0.266667  0.533333  0.000000      0.000000
  0.260606  0.521212  0.000000      0.000000
  0.254545  0.509091  0.000000      0.000000
  0.248485  0.496970  0.000000      0.000000
  0.242424  0.484848  0.000000      0.000000
  0.236364  0.472727  0.000000      0.000000
  0.230303  0.460606  0.000000      0.000000
  0.224242  0.448485  0.000000      0.000000
  0.218182  0.436364  0.000000      0.000000
  0.212121  0.424242  0.000000      0.000000
  0.206061  0.412121  0.000000      0.000000
  0.200000  0.400000  0.000000      0.000000
  0.193939  0.387879  0.000000      0.000000
  0.187879  0.375758  0.000000      0.000000
  0.181818  0.363636  0.000000      0.000000
  0.175758  0.351515  0.000000      0.000000
  0.169697  0.339394  0.000000      0.000000
  0.163636  0.327273  0.000000      0.000000
  0.157576  0.315152  0.000000      0.000000
  0.151515  0.303030  0.000000      0.000000
  0.145455  0.290909  0.000000      0.000000
  0.139394  0.278788  0.000000      0.000000
  0.133333  0.266667  0.000000      0.000000
  0.127273  0.254545  0.000000      0.000000
  0.121212  0.242424  0.000000      0.000000
  0.115152  0.230303  0.000000      0.000000
  0.109091  0.218182  0.000000      0.000000
  0.103030  0.206061  0.000000      0.000000
  0.096970  0.193939  0.000000      0.000000
  0.090909  0.181818  0.000000      0.000000
  0.084848  0.169697  0.000000      0.000000
  0.078788  0.157576  0.000000      0.000000
  0.072727  0.145455  0.000000      0.000000
  0.066667  0.133333  0.000000      0.000000
  0.060606  0.121212  0.000000      0.000000
  0.054545  0.109091  0.000000      0.000000
  0.048485  0.096970  0.000000      0.000000
  0.042424  0.084848  0.000000      0.000000
  0.036364  0.072727  0.000000      0.000000
  0.030303  0.060606  0.000000      0.000000
  0.024242  0.048485  0.000000      0.000000
  0.018182  0.036364  0.000000      0.000000
  0.012121  0.024242  0.000000      0.000000
  0.006061  0.012121  0.000000      0.000000
  0.000000  0.000000  0.000000      0.000000

 Following cartesian coordinates:
            Coordinates               Weight
  0.000000  0.000000  0.000000      0.003086
  0.022509 -0.012996  0.000000      0.018519
  0.045018 -0.025991  0.000000      0.018519
  0.067527 -0.038987  0.000000      0.018519
  0.090037 -0.051983  0.000000      0.018519
  0.112546 -0.064978  0.000000      0.018519
  0.135055 -0.077974  0.000000      0.018519
  0.157564 -0.090970  0.000000      0.018519
  0.180073 -0.103965  0.000000      0.018519
  0.202582 -0.116961  0.000000      0.009259
  0.045018  0.000000  0.000000      0.018519
  0.067527 -0.012996  0.000000      0.037037
  0.090037 -0.025991  0.000000      0.037037
  0.112546 -0.038987  0.000000      0.037037
  0.135055 -0.051983  0.000000      0.037037
  0.157564 -0.064978  0.000000      0.037037
  0.180073 -0.077974  0.000000      0.037037
  0.202582 -0.090970  0.000000      0.037037
  0.090037  0.000000  0.000000      0.018519
  0.112546 -0.012996  0.000000      0.037037
  0.135055 -0.025991  0.000000      0.037037
  0.157564 -0.038987  0.000000      0.037037
  0.180073 -0.051983  0.000000      0.037037
  0.202582 -0.064978  0.000000      0.037037
 -0.180073  0.155948  0.000000      0.018519
  0.135055  0.000000  0.000000      0.018519
  0.157564 -0.012996  0.000000      0.037037
  0.180073 -0.025991  0.000000      0.037037
  0.202582 -0.038987  0.000000      0.037037
 -0.180073  0.181939  0.000000      0.037037
  0.180073  0.000000  0.000000      0.018519
  0.202582 -0.012996  0.000000      0.037037
 -0.180073  0.207931  0.000000      0.037037
 -0.157564  0.194935  0.000000      0.018519
 -0.180073  0.233922  0.000000      0.018519
 -0.157564  0.220926  0.000000      0.037037
 -0.135055  0.233922  0.000000      0.006173
  0.000000  0.000000  0.000000      0.000000
  0.004310  0.002489  0.000000      0.000000
  0.008621  0.004977  0.000000      0.000000
  0.012931  0.007466  0.000000      0.000000
  0.017241  0.009954  0.000000      0.000000
  0.021551  0.012443  0.000000      0.000000
  0.025862  0.014931  0.000000      0.000000
  0.030172  0.017420  0.000000      0.000000
  0.034482  0.019908  0.000000      0.000000
  0.038792  0.022397  0.000000      0.000000
  0.043103  0.024885  0.000000      0.000000
  0.047413  0.027374  0.000000      0.000000
  0.051723  0.029862  0.000000      0.000000
  0.056033  0.032351  0.000000      0.000000
  0.060344  0.034839  0.000000      0.000000
  0.064654  0.037328  0.000000      0.000000
  0.068964  0.039816  0.000000      0.000000
  0.073274  0.042305  0.000000      0.000000
  0.077585  0.044794  0.000000      0.000000
  0.081895  0.047282  0.000000      0.000000
  0.086205  0.049771  0.000000      0.000000
  0.090515  0.052259  0.000000      0.000000
  0.094826  0.054748  0.000000      0.000000
  0.099136  0.057236  0.000000      0.000000
  0.103446  0.059725  0.000000      0.000000
  0.107757  0.062213  0.000000      0.000000
  0.112067  0.064702  0.000000      0.000000
  0.116377  0.067190  0.000000      0.000000
  0.120687  0.069679  0.000000      0.000000
  0.124998  0.072167  0.000000      0.000000
  0.129308  0.074656  0.000000      0.000000
  0.133618  0.077144  0.000000      0.000000
  0.137928  0.079633  0.000000      0.000000
  0.142239  0.082121  0.000000      0.000000
  0.146549  0.084610  0.000000      0.000000
  0.150859  0.087099  0.000000      0.000000
  0.155169  0.089587  0.000000      0.000000
  0.159480  0.092076  0.000000      0.000000
  0.163790  0.094564  0.000000      0.000000
  0.168100  0.097053  0.000000      0.000000
  0.172410  0.099541  0.000000      0.000000
  0.176721  0.102030  0.000000      0.000000
  0.181031  0.104518  0.000000      0.000000
  0.185341  0.107007  0.000000      0.000000
  0.189651  0.109495  0.000000      0.000000
  0.193962  0.111984  0.000000      0.000000
  0.198272  0.114472  0.000000      0.000000
  0.202582  0.116961  0.000000      0.000000
  0.202582  0.116961  0.000000      0.000000
  0.200081  0.121293  0.000000      0.000000
  0.197580  0.125625  0.000000      0.000000
  0.195079  0.129957  0.000000      0.000000
  0.192578  0.134288  0.000000      0.000000
  0.190077  0.138620  0.000000      0.000000
  0.187576  0.142952  0.000000      0.000000
  0.185075  0.147284  0.000000      0.000000
  0.182574  0.151616  0.000000      0.000000
  0.180073  0.155948  0.000000      0.000000
  0.177572  0.160280  0.000000      0.000000
  0.175071  0.164612  0.000000      0.000000
  0.172570  0.168944  0.000000      0.000000
  0.170069  0.173275  0.000000      0.000000
  0.167568  0.177607  0.000000      0.000000
  0.165067  0.181939  0.000000      0.000000
  0.162566  0.186271  0.000000      0.000000
  0.160065  0.190603  0.000000      0.000000
  0.157564  0.194935  0.000000      0.000000
  0.155063  0.199267  0.000000      0.000000
  0.152562  0.203599  0.000000      0.000000
  0.150061  0.207931  0.000000      0.000000
  0.147560  0.212262  0.000000      0.000000
  0.145059  0.216594  0.000000      0.000000
  0.142558  0.220926  0.000000      0.000000
  0.140057  0.225258  0.000000      0.000000
  0.137556  0.229590  0.000000      0.000000
  0.135055  0.233922  0.000000      0.000000
  0.135055  0.233922  0.000000      0.000000
  0.132599  0.229669  0.000000      0.000000
  0.130144  0.225416  0.000000      0.000000
  0.127688  0.221162  0.000000      0.000000
  0.125233  0.216909  0.000000      0.000000
  0.122777  0.212656  0.000000      0.000000
  0.120322  0.208403  0.000000      0.000000
  0.117866  0.204150  0.000000      0.000000
  0.115410  0.199897  0.000000      0.000000
  0.112955  0.195644  0.000000      0.000000
  0.110499  0.191391  0.000000      0.000000
  0.108044  0.187137  0.000000      0.000000
  0.105588  0.182884  0.000000      0.000000
  0.103133  0.178631  0.000000      0.000000
  0.100677  0.174378  0.000000      0.000000
  0.098222  0.170125  0.000000      0.000000
  0.095766  0.165872  0.000000      0.000000
  0.093311  0.161619  0.000000      0.000000
  0.090855  0.157366  0.000000      0.000000
  0.088400  0.153112  0.000000      0.000000
  0.085944  0.148859  0.000000      0.000000
  0.083488  0.144606  0.000000      0.000000
  0.081033  0.140353  0.000000      0.000000
  0.078577  0.136100  0.000000      0.000000
  0.076122  0.131847  0.000000      0.000000
  0.073666  0.127594  0.000000      0.000000
  0.071211  0.123341  0.000000      0.000000
  0.068755  0.119087  0.000000      0.000000
  0.066300  0.114834  0.000000      0.000000
  0.063844  0.110581  0.000000      0.000000
  0.061389  0.106328  0.000000      0.000000
  0.058933  0.102075  0.000000      0.000000
  0.056477  0.097822  0.000000      0.000000
  0.054022  0.093569  0.000000      0.000000
  0.051566  0.089316  0.000000      0.000000
  0.049111  0.085062  0.000000      0.000000
  0.046655  0.080809  0.000000      0.000000
  0.044200  0.076556  0.000000      0.000000
  0.041744  0.072303  0.000000      0.000000
  0.039289  0.068050  0.000000      0.000000
  0.036833  0.063797  0.000000      0.000000
  0.034378  0.059544  0.000000      0.000000
  0.031922  0.055291  0.000000      0.000000
  0.029467  0.051037  0.000000      0.000000
  0.027011  0.046784  0.000000      0.000000
  0.024555  0.042531  0.000000      0.000000
  0.022100  0.038278  0.000000      0.000000
  0.019644  0.034025  0.000000      0.000000
  0.017189  0.029772  0.000000      0.000000
  0.014733  0.025519  0.000000      0.000000
  0.012278  0.021266  0.000000      0.000000
  0.009822  0.017012  0.000000      0.000000
  0.007367  0.012759  0.000000      0.000000
  0.004911  0.008506  0.000000      0.000000
  0.002456  0.004253  0.000000      0.000000
  0.000000  0.000000  0.000000      0.000000
 
 
 Subroutine IBZKPT_HF returns following result:
 ==============================================
 
 Found    456 k-points in 1st BZ
 the following    456 k-points will be used (e.g. in the exchange kernel)
 Following reciprocal coordinates:   # in IRBZ
  0.000000  0.000000  0.000000    0.00308642   1 t-inv F
  0.055556  0.000000  0.000000    0.00308642   2 t-inv F
  0.111111  0.000000  0.000000    0.00308642   3 t-inv F
  0.166667  0.000000  0.000000    0.00308642   4 t-inv F
  0.222222  0.000000  0.000000    0.00308642   5 t-inv F
  0.277778  0.000000  0.000000    0.00308642   6 t-inv F
  0.333333  0.000000  0.000000    0.00308642   7 t-inv F
  0.388889  0.000000  0.000000    0.00308642   8 t-inv F
  0.444444  0.000000  0.000000    0.00308642   9 t-inv F
  0.500000  0.000000  0.000000    0.00308642  10 t-inv F
  0.111111  0.055556  0.000000    0.00308642  11 t-inv F
  0.166667  0.055556  0.000000    0.00308642  12 t-inv F
  0.222222  0.055556  0.000000    0.00308642  13 t-inv F
  0.277778  0.055556  0.000000    0.00308642  14 t-inv F
  0.333333  0.055556  0.000000    0.00308642  15 t-inv F
  0.388889  0.055556  0.000000    0.00308642  16 t-inv F
  0.444444  0.055556  0.000000    0.00308642  17 t-inv F
  0.500000  0.055556  0.000000    0.00308642  18 t-inv F
  0.222222  0.111111  0.000000    0.00308642  19 t-inv F
  0.277778  0.111111  0.000000    0.00308642  20 t-inv F
  0.333333  0.111111  0.000000    0.00308642  21 t-inv F
  0.388889  0.111111  0.000000    0.00308642  22 t-inv F
  0.444444  0.111111  0.000000    0.00308642  23 t-inv F
  0.500000  0.111111  0.000000    0.00308642  24 t-inv F
 -0.444444  0.111111  0.000000    0.00308642  25 t-inv F
  0.333333  0.166667  0.000000    0.00308642  26 t-inv F
  0.388889  0.166667  0.000000    0.00308642  27 t-inv F
  0.444444  0.166667  0.000000    0.00308642  28 t-inv F
  0.500000  0.166667  0.000000    0.00308642  29 t-inv F
 -0.444444  0.166667  0.000000    0.00308642  30 t-inv F
  0.444444  0.222222  0.000000    0.00308642  31 t-inv F
  0.500000  0.222222  0.000000    0.00308642  32 t-inv F
 -0.444444  0.222222  0.000000    0.00308642  33 t-inv F
 -0.388889  0.222222  0.000000    0.00308642  34 t-inv F
 -0.444444  0.277778  0.000000    0.00308642  35 t-inv F
 -0.388889  0.277778  0.000000    0.00308642  36 t-inv F
 -0.333333  0.333333  0.000000    0.00308642  37 t-inv F
  0.000000  0.000000  0.000000    0.00000000  38 t-inv F
  0.010638  0.010638  0.000000    0.00000000  39 t-inv F
  0.021277  0.021277  0.000000    0.00000000  40 t-inv F
  0.031915  0.031915  0.000000    0.00000000  41 t-inv F
  0.042553  0.042553  0.000000    0.00000000  42 t-inv F
  0.053191  0.053191  0.000000    0.00000000  43 t-inv F
  0.063830  0.063830  0.000000    0.00000000  44 t-inv F
  0.074468  0.074468  0.000000    0.00000000  45 t-inv F
  0.085106  0.085106  0.000000    0.00000000  46 t-inv F
  0.095745  0.095745  0.000000    0.00000000  47 t-inv F
  0.106383  0.106383  0.000000    0.00000000  48 t-inv F
  0.117021  0.117021  0.000000    0.00000000  49 t-inv F
  0.127660  0.127660  0.000000    0.00000000  50 t-inv F
  0.138298  0.138298  0.000000    0.00000000  51 t-inv F
  0.148936  0.148936  0.000000    0.00000000  52 t-inv F
  0.159574  0.159574  0.000000    0.00000000  53 t-inv F
  0.170213  0.170213  0.000000    0.00000000  54 t-inv F
  0.180851  0.180851  0.000000    0.00000000  55 t-inv F
  0.191489  0.191489  0.000000    0.00000000  56 t-inv F
  0.202128  0.202128  0.000000    0.00000000  57 t-inv F
  0.212766  0.212766  0.000000    0.00000000  58 t-inv F
  0.223404  0.223404  0.000000    0.00000000  59 t-inv F
  0.234043  0.234043  0.000000    0.00000000  60 t-inv F
  0.244681  0.244681  0.000000    0.00000000  61 t-inv F
  0.255319  0.255319  0.000000    0.00000000  62 t-inv F
  0.265957  0.265957  0.000000    0.00000000  63 t-inv F
  0.276596  0.276596  0.000000    0.00000000  64 t-inv F
  0.287234  0.287234  0.000000    0.00000000  65 t-inv F
  0.297872  0.297872  0.000000    0.00000000  66 t-inv F
  0.308511  0.308511  0.000000    0.00000000  67 t-inv F
  0.319149  0.319149  0.000000    0.00000000  68 t-inv F
  0.329787  0.329787  0.000000    0.00000000  69 t-inv F
  0.340426  0.340426  0.000000    0.00000000  70 t-inv F
  0.351064  0.351064  0.000000    0.00000000  71 t-inv F
  0.361702  0.361702  0.000000    0.00000000  72 t-inv F
  0.372340  0.372340  0.000000    0.00000000  73 t-inv F
  0.382979  0.382979  0.000000    0.00000000  74 t-inv F
  0.393617  0.393617  0.000000    0.00000000  75 t-inv F
  0.404255  0.404255  0.000000    0.00000000  76 t-inv F
  0.414894  0.414894  0.000000    0.00000000  77 t-inv F
  0.425532  0.425532  0.000000    0.00000000  78 t-inv F
  0.436170  0.436170  0.000000    0.00000000  79 t-inv F
  0.446809  0.446809  0.000000    0.00000000  80 t-inv F
  0.457447  0.457447  0.000000    0.00000000  81 t-inv F
  0.468085  0.468085  0.000000    0.00000000  82 t-inv F
  0.478723  0.478723  0.000000    0.00000000  83 t-inv F
  0.489362  0.489362  0.000000    0.00000000  84 t-inv F
  0.500000  0.500000  0.000000    0.00000000  85 t-inv F
  0.500000  0.500000  0.000000    0.00000000  86 t-inv F
  0.493827  0.506173  0.000000    0.00000000  87 t-inv F
  0.487654  0.512346  0.000000    0.00000000  88 t-inv F
  0.481481  0.518519  0.000000    0.00000000  89 t-inv F
  0.475309  0.524691  0.000000    0.00000000  90 t-inv F
  0.469136  0.530864  0.000000    0.00000000  91 t-inv F
  0.462963  0.537037  0.000000    0.00000000  92 t-inv F
  0.456790  0.543210  0.000000    0.00000000  93 t-inv F
  0.450617  0.549383  0.000000    0.00000000  94 t-inv F
  0.444444  0.555556  0.000000    0.00000000  95 t-inv F
  0.438272  0.561728  0.000000    0.00000000  96 t-inv F
  0.432099  0.567901  0.000000    0.00000000  97 t-inv F
  0.425926  0.574074  0.000000    0.00000000  98 t-inv F
  0.419753  0.580247  0.000000    0.00000000  99 t-inv F
  0.413580  0.586420  0.000000    0.00000000 100 t-inv F
  0.407407  0.592593  0.000000    0.00000000 101 t-inv F
  0.401235  0.598765  0.000000    0.00000000 102 t-inv F
  0.395062  0.604938  0.000000    0.00000000 103 t-inv F
  0.388889  0.611111  0.000000    0.00000000 104 t-inv F
  0.382716  0.617284  0.000000    0.00000000 105 t-inv F
  0.376543  0.623457  0.000000    0.00000000 106 t-inv F
  0.370370  0.629630  0.000000    0.00000000 107 t-inv F
  0.364198  0.635802  0.000000    0.00000000 108 t-inv F
  0.358025  0.641975  0.000000    0.00000000 109 t-inv F
  0.351852  0.648148  0.000000    0.00000000 110 t-inv F
  0.345679  0.654321  0.000000    0.00000000 111 t-inv F
  0.339506  0.660494  0.000000    0.00000000 112 t-inv F
  0.333333  0.666667  0.000000    0.00000000 113 t-inv F
  0.333333  0.666667  0.000000    0.00000000 114 t-inv F
  0.327273  0.654545  0.000000    0.00000000 115 t-inv F
  0.321212  0.642424  0.000000    0.00000000 116 t-inv F
  0.315152  0.630303  0.000000    0.00000000 117 t-inv F
  0.309091  0.618182  0.000000    0.00000000 118 t-inv F
  0.303030  0.606061  0.000000    0.00000000 119 t-inv F
  0.296970  0.593939  0.000000    0.00000000 120 t-inv F
  0.290909  0.581818  0.000000    0.00000000 121 t-inv F
  0.284848  0.569697  0.000000    0.00000000 122 t-inv F
  0.278788  0.557576  0.000000    0.00000000 123 t-inv F
  0.272727  0.545455  0.000000    0.00000000 124 t-inv F
  0.266667  0.533333  0.000000    0.00000000 125 t-inv F
  0.260606  0.521212  0.000000    0.00000000 126 t-inv F
  0.254545  0.509091  0.000000    0.00000000 127 t-inv F
  0.248485  0.496970  0.000000    0.00000000 128 t-inv F
  0.242424  0.484848  0.000000    0.00000000 129 t-inv F
  0.236364  0.472727  0.000000    0.00000000 130 t-inv F
  0.230303  0.460606  0.000000    0.00000000 131 t-inv F
  0.224242  0.448485  0.000000    0.00000000 132 t-inv F
  0.218182  0.436364  0.000000    0.00000000 133 t-inv F
  0.212121  0.424242  0.000000    0.00000000 134 t-inv F
  0.206061  0.412121  0.000000    0.00000000 135 t-inv F
  0.200000  0.400000  0.000000    0.00000000 136 t-inv F
  0.193939  0.387879  0.000000    0.00000000 137 t-inv F
  0.187879  0.375758  0.000000    0.00000000 138 t-inv F
  0.181818  0.363636  0.000000    0.00000000 139 t-inv F
  0.175758  0.351515  0.000000    0.00000000 140 t-inv F
  0.169697  0.339394  0.000000    0.00000000 141 t-inv F
  0.163636  0.327273  0.000000    0.00000000 142 t-inv F
  0.157576  0.315152  0.000000    0.00000000 143 t-inv F
  0.151515  0.303030  0.000000    0.00000000 144 t-inv F
  0.145455  0.290909  0.000000    0.00000000 145 t-inv F
  0.139394  0.278788  0.000000    0.00000000 146 t-inv F
  0.133333  0.266667  0.000000    0.00000000 147 t-inv F
  0.127273  0.254545  0.000000    0.00000000 148 t-inv F
  0.121212  0.242424  0.000000    0.00000000 149 t-inv F
  0.115152  0.230303  0.000000    0.00000000 150 t-inv F
  0.109091  0.218182  0.000000    0.00000000 151 t-inv F
  0.103030  0.206061  0.000000    0.00000000 152 t-inv F
  0.096970  0.193939  0.000000    0.00000000 153 t-inv F
  0.090909  0.181818  0.000000    0.00000000 154 t-inv F
  0.084848  0.169697  0.000000    0.00000000 155 t-inv F
  0.078788  0.157576  0.000000    0.00000000 156 t-inv F
  0.072727  0.145455  0.000000    0.00000000 157 t-inv F
  0.066667  0.133333  0.000000    0.00000000 158 t-inv F
  0.060606  0.121212  0.000000    0.00000000 159 t-inv F
  0.054545  0.109091  0.000000    0.00000000 160 t-inv F
  0.048485  0.096970  0.000000    0.00000000 161 t-inv F
  0.042424  0.084848  0.000000    0.00000000 162 t-inv F
  0.036364  0.072727  0.000000    0.00000000 163 t-inv F
  0.030303  0.060606  0.000000    0.00000000 164 t-inv F
  0.024242  0.048485  0.000000    0.00000000 165 t-inv F
  0.018182  0.036364  0.000000    0.00000000 166 t-inv F
  0.012121  0.024242  0.000000    0.00000000 167 t-inv F
  0.006061  0.012121  0.000000    0.00000000 168 t-inv F
  0.000000  0.000000  0.000000    0.00000000 169 t-inv F
 -0.055556 -0.055556  0.000000    0.00308642   2 t-inv F
  0.000000  0.055556  0.000000    0.00308642   2 t-inv F
 -0.055556  0.000000  0.000000    0.00308642   2 t-inv F
  0.055556  0.055556  0.000000    0.00308642   2 t-inv F
  0.000000 -0.055556  0.000000    0.00308642   2 t-inv F
 -0.111111 -0.111111  0.000000    0.00308642   3 t-inv F
  0.000000  0.111111  0.000000    0.00308642   3 t-inv F
 -0.111111  0.000000  0.000000    0.00308642   3 t-inv F
  0.111111  0.111111  0.000000    0.00308642   3 t-inv F
  0.000000 -0.111111  0.000000    0.00308642   3 t-inv F
 -0.166667 -0.166667  0.000000    0.00308642   4 t-inv F
  0.000000  0.166667  0.000000    0.00308642   4 t-inv F
 -0.166667  0.000000  0.000000    0.00308642   4 t-inv F
  0.166667  0.166667  0.000000    0.00308642   4 t-inv F
  0.000000 -0.166667  0.000000    0.00308642   4 t-inv F
 -0.222222 -0.222222  0.000000    0.00308642   5 t-inv F
  0.000000  0.222222  0.000000    0.00308642   5 t-inv F
 -0.222222  0.000000  0.000000    0.00308642   5 t-inv F
  0.222222  0.222222  0.000000    0.00308642   5 t-inv F
  0.000000 -0.222222  0.000000    0.00308642   5 t-inv F
 -0.277778 -0.277778  0.000000    0.00308642   6 t-inv F
  0.000000  0.277778  0.000000    0.00308642   6 t-inv F
 -0.277778  0.000000  0.000000    0.00308642   6 t-inv F
  0.277778  0.277778  0.000000    0.00308642   6 t-inv F
  0.000000 -0.277778  0.000000    0.00308642   6 t-inv F
 -0.333333 -0.333333  0.000000    0.00308642   7 t-inv F
  0.000000  0.333333  0.000000    0.00308642   7 t-inv F
 -0.333333  0.000000  0.000000    0.00308642   7 t-inv F
  0.333333  0.333333  0.000000    0.00308642   7 t-inv F
  0.000000 -0.333333  0.000000    0.00308642   7 t-inv F
 -0.388889 -0.388889  0.000000    0.00308642   8 t-inv F
  0.000000  0.388889  0.000000    0.00308642   8 t-inv F
 -0.388889  0.000000  0.000000    0.00308642   8 t-inv F
  0.388889  0.388889  0.000000    0.00308642   8 t-inv F
  0.000000 -0.388889  0.000000    0.00308642   8 t-inv F
 -0.444444 -0.444444  0.000000    0.00308642   9 t-inv F
  0.000000  0.444444  0.000000    0.00308642   9 t-inv F
 -0.444444  0.000000  0.000000    0.00308642   9 t-inv F
  0.444444  0.444444  0.000000    0.00308642   9 t-inv F
  0.000000 -0.444444  0.000000    0.00308642   9 t-inv F
 -0.500000 -0.500000  0.000000    0.00308642  10 t-inv F
  0.000000  0.500000  0.000000    0.00308642  10 t-inv F
 -0.055556 -0.111111  0.000000    0.00308642  11 t-inv F
 -0.055556  0.055556  0.000000    0.00308642  11 t-inv F
  0.055556 -0.055556  0.000000    0.00308642  11 t-inv F
  0.055556  0.111111  0.000000    0.00308642  11 t-inv F
 -0.111111 -0.055556  0.000000    0.00308642  11 t-inv F
 -0.111111 -0.166667  0.000000    0.00308642  12 t-inv F
 -0.055556  0.111111  0.000000    0.00308642  12 t-inv F
  0.111111 -0.055556  0.000000    0.00308642  12 t-inv F
  0.055556  0.166667  0.000000    0.00308642  12 t-inv F
 -0.166667 -0.111111  0.000000    0.00308642  12 t-inv F
 -0.166667 -0.055556  0.000000    0.00308642  12 t-inv F
  0.111111  0.166667  0.000000    0.00308642  12 t-inv F
  0.055556 -0.111111  0.000000    0.00308642  12 t-inv F
 -0.111111  0.055556  0.000000    0.00308642  12 t-inv F
 -0.055556 -0.166667  0.000000    0.00308642  12 t-inv F
  0.166667  0.111111  0.000000    0.00308642  12 t-inv F
 -0.166667 -0.222222  0.000000    0.00308642  13 t-inv F
 -0.055556  0.166667  0.000000    0.00308642  13 t-inv F
  0.166667 -0.055556  0.000000    0.00308642  13 t-inv F
  0.055556  0.222222  0.000000    0.00308642  13 t-inv F
 -0.222222 -0.166667  0.000000    0.00308642  13 t-inv F
 -0.222222 -0.055556  0.000000    0.00308642  13 t-inv F
  0.166667  0.222222  0.000000    0.00308642  13 t-inv F
  0.055556 -0.166667  0.000000    0.00308642  13 t-inv F
 -0.166667  0.055556  0.000000    0.00308642  13 t-inv F
 -0.055556 -0.222222  0.000000    0.00308642  13 t-inv F
  0.222222  0.166667  0.000000    0.00308642  13 t-inv F
 -0.222222 -0.277778  0.000000    0.00308642  14 t-inv F
 -0.055556  0.222222  0.000000    0.00308642  14 t-inv F
  0.222222 -0.055556  0.000000    0.00308642  14 t-inv F
  0.055556  0.277778  0.000000    0.00308642  14 t-inv F
 -0.277778 -0.222222  0.000000    0.00308642  14 t-inv F
 -0.277778 -0.055556  0.000000    0.00308642  14 t-inv F
  0.222222  0.277778  0.000000    0.00308642  14 t-inv F
  0.055556 -0.222222  0.000000    0.00308642  14 t-inv F
 -0.222222  0.055556  0.000000    0.00308642  14 t-inv F
 -0.055556 -0.277778  0.000000    0.00308642  14 t-inv F
  0.277778  0.222222  0.000000    0.00308642  14 t-inv F
 -0.277778 -0.333333  0.000000    0.00308642  15 t-inv F
 -0.055556  0.277778  0.000000    0.00308642  15 t-inv F
  0.277778 -0.055556  0.000000    0.00308642  15 t-inv F
  0.055556  0.333333  0.000000    0.00308642  15 t-inv F
 -0.333333 -0.277778  0.000000    0.00308642  15 t-inv F
 -0.333333 -0.055556  0.000000    0.00308642  15 t-inv F
  0.277778  0.333333  0.000000    0.00308642  15 t-inv F
  0.055556 -0.277778  0.000000    0.00308642  15 t-inv F
 -0.277778  0.055556  0.000000    0.00308642  15 t-inv F
 -0.055556 -0.333333  0.000000    0.00308642  15 t-inv F
  0.333333  0.277778  0.000000    0.00308642  15 t-inv F
 -0.333333 -0.388889  0.000000    0.00308642  16 t-inv F
 -0.055556  0.333333  0.000000    0.00308642  16 t-inv F
  0.333333 -0.055556  0.000000    0.00308642  16 t-inv F
  0.055556  0.388889  0.000000    0.00308642  16 t-inv F
 -0.388889 -0.333333  0.000000    0.00308642  16 t-inv F
 -0.388889 -0.055556  0.000000    0.00308642  16 t-inv F
  0.333333  0.388889  0.000000    0.00308642  16 t-inv F
  0.055556 -0.333333  0.000000    0.00308642  16 t-inv F
 -0.333333  0.055556  0.000000    0.00308642  16 t-inv F
 -0.055556 -0.388889  0.000000    0.00308642  16 t-inv F
  0.388889  0.333333  0.000000    0.00308642  16 t-inv F
 -0.388889 -0.444444  0.000000    0.00308642  17 t-inv F
 -0.055556  0.388889  0.000000    0.00308642  17 t-inv F
  0.388889 -0.055556  0.000000    0.00308642  17 t-inv F
  0.055556  0.444444  0.000000    0.00308642  17 t-inv F
 -0.444444 -0.388889  0.000000    0.00308642  17 t-inv F
 -0.444444 -0.055556  0.000000    0.00308642  17 t-inv F
  0.388889  0.444444  0.000000    0.00308642  17 t-inv F
  0.055556 -0.388889  0.000000    0.00308642  17 t-inv F
 -0.388889  0.055556  0.000000    0.00308642  17 t-inv F
 -0.055556 -0.444444  0.000000    0.00308642  17 t-inv F
  0.444444  0.388889  0.000000    0.00308642  17 t-inv F
 -0.444444 -0.500000  0.000000    0.00308642  18 t-inv F
 -0.055556  0.444444  0.000000    0.00308642  18 t-inv F
  0.444444 -0.055556  0.000000    0.00308642  18 t-inv F
  0.055556  0.500000  0.000000    0.00308642  18 t-inv F
 -0.500000 -0.444444  0.000000    0.00308642  18 t-inv F
 -0.500000 -0.055556  0.000000    0.00308642  18 t-inv F
  0.444444  0.500000  0.000000    0.00308642  18 t-inv F
  0.055556 -0.444444  0.000000    0.00308642  18 t-inv F
 -0.444444  0.055556  0.000000    0.00308642  18 t-inv F
 -0.055556 -0.500000  0.000000    0.00308642  18 t-inv F
  0.500000  0.444444  0.000000    0.00308642  18 t-inv F
 -0.111111 -0.222222  0.000000    0.00308642  19 t-inv F
 -0.111111  0.111111  0.000000    0.00308642  19 t-inv F
  0.111111 -0.111111  0.000000    0.00308642  19 t-inv F
  0.111111  0.222222  0.000000    0.00308642  19 t-inv F
 -0.222222 -0.111111  0.000000    0.00308642  19 t-inv F
 -0.166667 -0.277778  0.000000    0.00308642  20 t-inv F
 -0.111111  0.166667  0.000000    0.00308642  20 t-inv F
  0.166667 -0.111111  0.000000    0.00308642  20 t-inv F
  0.111111  0.277778  0.000000    0.00308642  20 t-inv F
 -0.277778 -0.166667  0.000000    0.00308642  20 t-inv F
 -0.277778 -0.111111  0.000000    0.00308642  20 t-inv F
  0.166667  0.277778  0.000000    0.00308642  20 t-inv F
  0.111111 -0.166667  0.000000    0.00308642  20 t-inv F
 -0.166667  0.111111  0.000000    0.00308642  20 t-inv F
 -0.111111 -0.277778  0.000000    0.00308642  20 t-inv F
  0.277778  0.166667  0.000000    0.00308642  20 t-inv F
 -0.222222 -0.333333  0.000000    0.00308642  21 t-inv F
 -0.111111  0.222222  0.000000    0.00308642  21 t-inv F
  0.222222 -0.111111  0.000000    0.00308642  21 t-inv F
  0.111111  0.333333  0.000000    0.00308642  21 t-inv F
 -0.333333 -0.222222  0.000000    0.00308642  21 t-inv F
 -0.333333 -0.111111  0.000000    0.00308642  21 t-inv F
  0.222222  0.333333  0.000000    0.00308642  21 t-inv F
  0.111111 -0.222222  0.000000    0.00308642  21 t-inv F
 -0.222222  0.111111  0.000000    0.00308642  21 t-inv F
 -0.111111 -0.333333  0.000000    0.00308642  21 t-inv F
  0.333333  0.222222  0.000000    0.00308642  21 t-inv F
 -0.277778 -0.388889  0.000000    0.00308642  22 t-inv F
 -0.111111  0.277778  0.000000    0.00308642  22 t-inv F
  0.277778 -0.111111  0.000000    0.00308642  22 t-inv F
  0.111111  0.388889  0.000000    0.00308642  22 t-inv F
 -0.388889 -0.277778  0.000000    0.00308642  22 t-inv F
 -0.388889 -0.111111  0.000000    0.00308642  22 t-inv F
  0.277778  0.388889  0.000000    0.00308642  22 t-inv F
  0.111111 -0.277778  0.000000    0.00308642  22 t-inv F
 -0.277778  0.111111  0.000000    0.00308642  22 t-inv F
 -0.111111 -0.388889  0.000000    0.00308642  22 t-inv F
  0.388889  0.277778  0.000000    0.00308642  22 t-inv F
 -0.333333 -0.444444  0.000000    0.00308642  23 t-inv F
 -0.111111  0.333333  0.000000    0.00308642  23 t-inv F
  0.333333 -0.111111  0.000000    0.00308642  23 t-inv F
  0.111111  0.444444  0.000000    0.00308642  23 t-inv F
 -0.444444 -0.333333  0.000000    0.00308642  23 t-inv F
 -0.444444 -0.111111  0.000000    0.00308642  23 t-inv F
  0.333333  0.444444  0.000000    0.00308642  23 t-inv F
  0.111111 -0.333333  0.000000    0.00308642  23 t-inv F
 -0.333333  0.111111  0.000000    0.00308642  23 t-inv F
 -0.111111 -0.444444  0.000000    0.00308642  23 t-inv F
  0.444444  0.333333  0.000000    0.00308642  23 t-inv F
 -0.388889 -0.500000  0.000000    0.00308642  24 t-inv F
 -0.111111  0.388889  0.000000    0.00308642  24 t-inv F
  0.388889 -0.111111  0.000000    0.00308642  24 t-inv F
  0.111111  0.500000  0.000000    0.00308642  24 t-inv F
 -0.500000 -0.388889  0.000000    0.00308642  24 t-inv F
 -0.500000 -0.111111  0.000000    0.00308642  24 t-inv F
  0.388889  0.500000  0.000000    0.00308642  24 t-inv F
  0.111111 -0.388889  0.000000    0.00308642  24 t-inv F
 -0.388889  0.111111  0.000000    0.00308642  24 t-inv F
 -0.111111 -0.500000  0.000000    0.00308642  24 t-inv F
  0.500000  0.388889  0.000000    0.00308642  24 t-inv F
  0.555556  0.444444  0.000000    0.00308642  25 t-inv F
 -0.111111 -0.555556  0.000000    0.00308642  25 t-inv F
 -0.555556 -0.111111  0.000000    0.00308642  25 t-inv F
  0.111111 -0.444444  0.000000    0.00308642  25 t-inv F
  0.444444  0.555556  0.000000    0.00308642  25 t-inv F
 -0.166667 -0.333333  0.000000    0.00308642  26 t-inv F
 -0.166667  0.166667  0.000000    0.00308642  26 t-inv F
  0.166667 -0.166667  0.000000    0.00308642  26 t-inv F
  0.166667  0.333333  0.000000    0.00308642  26 t-inv F
 -0.333333 -0.166667  0.000000    0.00308642  26 t-inv F
 -0.222222 -0.388889  0.000000    0.00308642  27 t-inv F
 -0.166667  0.222222  0.000000    0.00308642  27 t-inv F
  0.222222 -0.166667  0.000000    0.00308642  27 t-inv F
  0.166667  0.388889  0.000000    0.00308642  27 t-inv F
 -0.388889 -0.222222  0.000000    0.00308642  27 t-inv F
 -0.388889 -0.166667  0.000000    0.00308642  27 t-inv F
  0.222222  0.388889  0.000000    0.00308642  27 t-inv F
  0.166667 -0.222222  0.000000    0.00308642  27 t-inv F
 -0.222222  0.166667  0.000000    0.00308642  27 t-inv F
 -0.166667 -0.388889  0.000000    0.00308642  27 t-inv F
  0.388889  0.222222  0.000000    0.00308642  27 t-inv F
 -0.277778 -0.444444  0.000000    0.00308642  28 t-inv F
 -0.166667  0.277778  0.000000    0.00308642  28 t-inv F
  0.277778 -0.166667  0.000000    0.00308642  28 t-inv F
  0.166667  0.444444  0.000000    0.00308642  28 t-inv F
 -0.444444 -0.277778  0.000000    0.00308642  28 t-inv F
 -0.444444 -0.166667  0.000000    0.00308642  28 t-inv F
  0.277778  0.444444  0.000000    0.00308642  28 t-inv F
  0.166667 -0.277778  0.000000    0.00308642  28 t-inv F
 -0.277778  0.166667  0.000000    0.00308642  28 t-inv F
 -0.166667 -0.444444  0.000000    0.00308642  28 t-inv F
  0.444444  0.277778  0.000000    0.00308642  28 t-inv F
 -0.333333 -0.500000  0.000000    0.00308642  29 t-inv F
 -0.166667  0.333333  0.000000    0.00308642  29 t-inv F
  0.333333 -0.166667  0.000000    0.00308642  29 t-inv F
  0.166667  0.500000  0.000000    0.00308642  29 t-inv F
 -0.500000 -0.333333  0.000000    0.00308642  29 t-inv F
 -0.500000 -0.166667  0.000000    0.00308642  29 t-inv F
  0.333333  0.500000  0.000000    0.00308642  29 t-inv F
  0.166667 -0.333333  0.000000    0.00308642  29 t-inv F
 -0.333333  0.166667  0.000000    0.00308642  29 t-inv F
 -0.166667 -0.500000  0.000000    0.00308642  29 t-inv F
  0.500000  0.333333  0.000000    0.00308642  29 t-inv F
  0.611111  0.444444  0.000000    0.00308642  30 t-inv F
 -0.166667 -0.611111  0.000000    0.00308642  30 t-inv F
 -0.611111 -0.166667  0.000000    0.00308642  30 t-inv F
  0.166667 -0.444444  0.000000    0.00308642  30 t-inv F
  0.444444  0.611111  0.000000    0.00308642  30 t-inv F
  0.444444 -0.166667  0.000000    0.00308642  30 t-inv F
 -0.611111 -0.444444  0.000000    0.00308642  30 t-inv F
  0.166667  0.611111  0.000000    0.00308642  30 t-inv F
  0.611111  0.166667  0.000000    0.00308642  30 t-inv F
 -0.166667  0.444444  0.000000    0.00308642  30 t-inv F
 -0.444444 -0.611111  0.000000    0.00308642  30 t-inv F
 -0.222222 -0.444444  0.000000    0.00308642  31 t-inv F
 -0.222222  0.222222  0.000000    0.00308642  31 t-inv F
  0.222222 -0.222222  0.000000    0.00308642  31 t-inv F
  0.222222  0.444444  0.000000    0.00308642  31 t-inv F
 -0.444444 -0.222222  0.000000    0.00308642  31 t-inv F
 -0.277778 -0.500000  0.000000    0.00308642  32 t-inv F
 -0.222222  0.277778  0.000000    0.00308642  32 t-inv F
  0.277778 -0.222222  0.000000    0.00308642  32 t-inv F
  0.222222  0.500000  0.000000    0.00308642  32 t-inv F
 -0.500000 -0.277778  0.000000    0.00308642  32 t-inv F
 -0.500000 -0.222222  0.000000    0.00308642  32 t-inv F
  0.277778  0.500000  0.000000    0.00308642  32 t-inv F
  0.222222 -0.277778  0.000000    0.00308642  32 t-inv F
 -0.277778  0.222222  0.000000    0.00308642  32 t-inv F
 -0.222222 -0.500000  0.000000    0.00308642  32 t-inv F
  0.500000  0.277778  0.000000    0.00308642  32 t-inv F
  0.666667  0.444444  0.000000    0.00308642  33 t-inv F
 -0.222222 -0.666667  0.000000    0.00308642  33 t-inv F
 -0.666667 -0.222222  0.000000    0.00308642  33 t-inv F
  0.222222 -0.444444  0.000000    0.00308642  33 t-inv F
  0.444444  0.666667  0.000000    0.00308642  33 t-inv F
  0.444444 -0.222222  0.000000    0.00308642  33 t-inv F
 -0.666667 -0.444444  0.000000    0.00308642  33 t-inv F
  0.222222  0.666667  0.000000    0.00308642  33 t-inv F
  0.666667  0.222222  0.000000    0.00308642  33 t-inv F
 -0.222222  0.444444  0.000000    0.00308642  33 t-inv F
 -0.444444 -0.666667  0.000000    0.00308642  33 t-inv F
  0.611111  0.388889  0.000000    0.00308642  34 t-inv F
 -0.222222 -0.611111  0.000000    0.00308642  34 t-inv F
 -0.611111 -0.222222  0.000000    0.00308642  34 t-inv F
  0.222222 -0.388889  0.000000    0.00308642  34 t-inv F
  0.388889  0.611111  0.000000    0.00308642  34 t-inv F
  0.722222  0.444444  0.000000    0.00308642  35 t-inv F
 -0.277778 -0.722222  0.000000    0.00308642  35 t-inv F
 -0.722222 -0.277778  0.000000    0.00308642  35 t-inv F
  0.277778 -0.444444  0.000000    0.00308642  35 t-inv F
  0.444444  0.722222  0.000000    0.00308642  35 t-inv F
  0.666667  0.388889  0.000000    0.00308642  36 t-inv F
 -0.277778 -0.666667  0.000000    0.00308642  36 t-inv F
 -0.666667 -0.277778  0.000000    0.00308642  36 t-inv F
  0.277778 -0.388889  0.000000    0.00308642  36 t-inv F
  0.388889  0.666667  0.000000    0.00308642  36 t-inv F
  0.388889 -0.277778  0.000000    0.00308642  36 t-inv F
 -0.666667 -0.388889  0.000000    0.00308642  36 t-inv F
  0.277778  0.666667  0.000000    0.00308642  36 t-inv F
  0.666667  0.277778  0.000000    0.00308642  36 t-inv F
 -0.277778  0.388889  0.000000    0.00308642  36 t-inv F
 -0.388889 -0.666667  0.000000    0.00308642  36 t-inv F
 -0.666667 -0.333333  0.000000    0.00308642  37 t-inv F


--------------------------------------------------------------------------------------------------------




 Dimension of arrays:
   k-points           NKPTS =    169   k-points in BZ     NKDIM =    456   number of bands    NBANDS=      8
   number of dos      NEDOS =    301   number of ions     NIONS =      2
   non local maximal  LDIM  =      4   non local SUM 2l+1 LMDIM =      8
   total plane-waves  NPLWV =  29160
   max r-space proj   IRMAX =      1   max aug-charges    IRDMAX=   5635
   dimension x,y,z NGX =    18 NGY =   18 NGZ =   90
   dimension x,y,z NGXF=    36 NGYF=   36 NGZF=  180
   support grid    NGXF=    36 NGYF=   36 NGZF=  180
   ions per type =               2
   NGX,Y,Z   is equivalent  to a cutoff of  12.12, 12.12, 12.47 a.u.
   NGXF,Y,Z  is equivalent  to a cutoff of  24.25, 24.25, 24.94 a.u.

 SYSTEM =  unknown system                          
 POSCAR =  C4                                      

 Startparameter for this run:
   NWRITE =      2    write-flag & timer
   PREC   = a         normal or accurate (medium, high low for compatibility)
   ISTART =      1    job   : 0-new  1-cont  2-samecut
   ICHARG =      1    charge: 1-file 2-atom 10-const
   ISPIN  =      1    spin polarized calculation?
   LNONCOLLINEAR =      F non collinear calculations
   LSORBIT =      F    spin-orbit coupling
   INIWAV =      1    electr: 0-lowe 1-rand  2-diag
   LASPH  =      F    aspherical Exc in radial PAW
 Electronic Relaxation 1
   ENCUT  =  520.0 eV  38.22 Ry    6.18 a.u.   4.59  4.59 22.31*2*pi/ulx,y,z
   ENINI  =  520.0     initial cutoff
   ENAUG  =  644.9 eV  augmentation charge cutoff
   NELM   =    200;   NELMIN=  2; NELMDL=  0     # of ELM steps 
   EDIFF  = 0.1E-05   stopping-criterion for ELM
   LREAL  =      F    real-space projection
   NLSPLINE    = F    spline interpolate recip. space projectors
   LCOMPAT=      F    compatible to vasp.4.4
   GGA_COMPAT  = T    GGA compatible to vasp.4.4-vasp.4.6
   LMAXPAW     = -100 max onsite density
   LMAXMIX     =    2 max onsite mixed and CHGCAR
   VOSKOWN=      0    Vosko Wilk Nusair interpolation
   ROPT   =    0.00000
 Ionic relaxation
   EDIFFG = -.1E-04   stopping-criterion for IOM
   NSW    =      0    number of steps for IOM
   NBLOCK =      1;   KBLOCK =      1    inner block; outer block 
   IBRION =     -1    ionic relax: 0-MD 1-quasi-New 2-CG
   NFREE  =      0    steps in history (QN), initial steepest desc. (CG)
   ISIF   =      3    stress and relaxation
   IWAVPR =     10    prediction:  0-non 1-charg 2-wave 3-comb
   ISYM   =      3    0-nonsym 1-usesym 2-fastsym
   LCORR  =      T    Harris-Foulkes like correction to forces

   POTIM  = 0.5000    time-step for ionic-motion
   TEIN   =    0.0    initial temperature
   TEBEG  =    0.0;   TEEND  =   0.0 temperature during run
   SMASS  =  -3.00    Nose mass-parameter (am)
   estimated Nose-frequenzy (Omega)   =  0.10E-29 period in steps = 0.13E+47 mass=  -0.139E-27a.u.
   SCALEE = 1.0000    scale energy and forces
   NPACO  =    256;   APACO  = 10.0  distance and # of slots for P.C.
   PSTRESS=    0.0 pullay stress

  Mass of Ions in am
   POMASS =  12.01
  Ionic Valenz
   ZVAL   =   4.00
  Atomic Wigner-Seitz radii
   RWIGS  =  -1.00
  virtual crystal weights 
   VCA    =   1.00
   NELECT =       8.0000    total number of electrons
   NUPDOWN=      -1.0000    fix difference up-down

 DOS related values:
   EMIN   =  10.00;   EMAX   =-10.00  energy-range for DOS
   EFERMI =   0.00
   ISMEAR =     0;   SIGMA  =   0.05  broadening in eV -4-tet -1-fermi 0-gaus

 Electronic relaxation 2 (details)
   IALGO  =     53    algorithm
   LDIAG  =      T    sub-space diagonalisation (order eigenvalues)
   LSUBROT=      F    optimize rotation matrix (better conditioning)
   TURBO    =      0    0=normal 1=particle mesh
   IRESTART =      0    0=no restart 2=restart with 2 vectors
   NREBOOT  =      0    no. of reboots
   NMIN     =      0    reboot dimension
   EREF     =   0.00    reference energy to select bands
   IMIX   =      4    mixing-type and parameters
     AMIX     =   0.40;   BMIX     =  1.00
     AMIX_MAG =   1.60;   BMIX_MAG =  1.00
     AMIN     =   0.10
     WC   =   100.;   INIMIX=   1;  MIXPRE=   1;  MAXMIX= -45

 Intra band minimization:
   WEIMIN = 0.0000     energy-eigenvalue tresh-hold
   EBREAK =  0.31E-07  absolut break condition
   DEPER  =   0.30     relativ break condition  

   TIME   =   0.40     timestep for ELM

  volume/ion in A,a.u.               =      31.65       213.61
  Fermi-wavevector in a.u.,A,eV,Ry     =   0.821527  1.552461  9.182660  0.674906
  Thomas-Fermi vector in A             =   1.932702
 
 Write flags
   LWAVE        =      F    write WAVECAR
   LDOWNSAMPLE  =      F    k-point downsampling of WAVECAR
   LCHARG       =      F    write CHGCAR
   LVTOT        =      F    write LOCPOT, total local potential
   LVHAR        =      F    write LOCPOT, Hartree potential only
   LELF         =      F    write electronic localiz. function (ELF)
   LORBIT       =      0    0 simple, 1 ext, 2 COOP (PROOUT), +10 PAW based schemes


 Dipole corrections
   LMONO  =      F    monopole corrections only (constant potential shift)
   LDIPOL =      F    correct potential (dipole corrections)
   IDIPOL =      0    1-x, 2-y, 3-z, 4-all directions 
   EPSILON=  1.0000000 bulk dielectric constant

 Exchange correlation treatment:
   GGA     =    --    GGA type
   LEXCH   =     8    internal setting for exchange type
   LIBXC   =     F    Libxc                    
   VOSKOWN =     0    Vosko Wilk Nusair interpolation
   EXXOEP  =     0    0=HF, 1=EXX-LHF (local Hartree Fock) 2=EXX OEP
   LHFCALC =     T    Hartree Fock is set to
   LSYMGRAD=     F    symmetrize gradient (conserves proper symmetry)
   PRECFOCK=normal    Normal, Fast or Accurate (Low or Medium for compatibility)
   LRHFCALC=     F    long range Hartree Fock
   LRSCOR  =     F    long range correlation only (use DFT for short range part)
   LTHOMAS =     F    Thomas Fermi screening in HF
   LMODELHF=     F    short range full HF, long range fraction AEXX
   LFOCKACE=     T    use Adeptively-Compressed-Exchange operator
   ENCUT4O =  -1.0   cutoff for four orbital integrals eV
   LMAXFOCK=     4    L truncation for augmentation on plane wave grid
   LMAXFOCKAE=  -1    L truncation for all-electron charge restoration on plane wave grid
   NMAXFOCKAE=   1    number of basis functions for all-electron charge restoration
   LFOCKAEDFT=     F  apply the AE augmentation even for DFT
   NKREDX  =     1    reduce k-point grid by
   NKREDY  =     1    reduce k-point grid by
   NKREDZ  =     1    reduce k-point grid by
   SHIFTRED=     F    shift reduced grid of Gamma
   HFKIDENT=     F    idential grid for each k-point
   ODDONLY =     F    use only odd q-grid points
   EVENONLY=     F    use only even q-grid points
   HFALPHA =   -1.0000 decay constant for conv. correction
   MCALPHA =    0.0000 extent of test-charge in conv. correction in multipole expansion
   AEXX    =    0.2500 exact exchange contribution
   HFSCREEN=    0.2000 screening length (either q_TF or 0.3 A-1)
   HFSCREENC=   0.2000 screening length for correlation (either q_TF or 0.3 A-1)
   HFRCUT  =    0.0000 spherical cutoff for potential kernel
   ALDAX   =    0.7500 LDA exchange part
   AGGAX   =    0.7500 GGA exchange part
   ALDAC   =    1.0000 LDA correlation
   AGGAC   =    1.0000 GGA correlation
   ENCUTFOCK=  -1.0 apply spherical cutoff to Coloumb kernel
   NBANDSGWLOW=     1    first orbital included in HF term
   NBLOCK_FOCK=    64    blocking factor in FOCK_ACC

 Linear response parameters
   LEPSILON=     F    determine dielectric tensor
   LRPA    =     F    only Hartree local field effects (RPA)
   LNABLA  =     F    use nabla operator in PAW spheres
   LVEL    =     F    velocity operator in full k-point grid
   CSHIFT  =0.1000    complex shift for real part using Kramers Kronig
   OMEGAMAX=  -1.0    maximum frequency
   DEG_THRESHOLD= 0.2000000E-02 threshold for treating states as degnerate
   RTIME   =   -0.100 relaxation time in fs
  (WPLASMAI=    0.000 imaginary part of plasma frequency in eV, 0.658/RTIME)
   DFIELD  = 0.0000000 0.0000000 0.0000000 field for delta impulse in time
 
  Optional k-point grid parameters
   LKPOINTS_OPT  =     F    use optional k-point grid
   KPOINTS_OPT_MODE=     1    mode for optional k-point grid
 
 Orbital magnetization related:
   ORBITALMAG=     F  switch on orbital magnetization
   LCHIMAG   =     F  perturbation theory with respect to B field
   DQ        =  0.001000  dq finite difference perturbation B field
   LLRAUG    =     F  two centre corrections for induced B field



--------------------------------------------------------------------------------------------------------


 Static calculation
 charge density and potential will be updated during run
 non-spin polarized calculation
 Conjugate gradient for all bands (Freysoldt, et al. PRB 79, 241103 (2009))
 perform sub-space diagonalisation
    before iterative eigenvector-optimisation
 modified Broyden-mixing scheme, WC =      100.0
 initial mixing is a Kerker type mixing with AMIX =  0.4000 and BMIX =      1.0000
 Hartree-type preconditioning will be used
 using additional bands            4
 reciprocal scheme for non local part
 use partial core corrections
 no Harris-corrections to forces 
 use gradient corrections 
 use of overlap-Matrix (Vanderbilt PP)
 Gauss-broadening in eV      SIGMA  =   0.05


--------------------------------------------------------------------------------------------------------


  energy-cutoff  :      520.00
  volume of cell :       63.31
      direct lattice vectors                 reciprocal lattice vectors
     2.468133242  0.000000000  0.000000000     0.405164512 -0.233921840  0.000000000
     1.234066621  2.137466087  0.000000000     0.000000000  0.467843680  0.000000000
     0.000000000  0.000000000 12.000000000     0.000000000  0.000000000  0.083333333

  length of vectors
     2.468133242  2.468133242 12.000000000     0.467843680  0.467843680  0.083333333


 
 old parameters found on file WAVECAR:
  energy-cutoff  :      520.00
  volume of cell :       63.31
      direct lattice vectors                 reciprocal lattice vectors
     2.468133242  0.000000000  0.000000000     0.405164512 -0.233921840  0.000000000
     1.234066621  2.137466087  0.000000000     0.000000000  0.467843680  0.000000000
     0.000000000  0.000000000 12.000000000     0.000000000  0.000000000  0.083333333

  length of vectors

 
 k-points in units of 2pi/SCALE and weight: 0.030  18  18   1   37  0.030  132    3 
   0.00000000  0.00000000  0.00000000       0.003
   0.02250914 -0.01299566  0.00000000       0.019
   0.04501828 -0.02599132  0.00000000       0.019
   0.06752742 -0.03898697  0.00000000       0.019
   0.09003656 -0.05198263  0.00000000       0.019
   0.11254570 -0.06497829  0.00000000       0.019
   0.13505484 -0.07797395  0.00000000       0.019
   0.15756398 -0.09096960  0.00000000       0.019
   0.18007312 -0.10396526  0.00000000       0.019
   0.20258226 -0.11696092  0.00000000       0.009
   0.04501828  0.00000000  0.00000000       0.019
   0.06752742 -0.01299566  0.00000000       0.037
   0.09003656 -0.02599132  0.00000000       0.037
   0.11254570 -0.03898697  0.00000000       0.037
   0.13505484 -0.05198263  0.00000000       0.037
   0.15756398 -0.06497829  0.00000000       0.037
   0.18007312 -0.07797395  0.00000000       0.037
   0.20258226 -0.09096960  0.00000000       0.037
   0.09003656  0.00000000  0.00000000       0.019
   0.11254570 -0.01299566  0.00000000       0.037
   0.13505484 -0.02599132  0.00000000       0.037
   0.15756398 -0.03898697  0.00000000       0.037
   0.18007312 -0.05198263  0.00000000       0.037
   0.20258226 -0.06497829  0.00000000       0.037
  -0.18007312  0.15594789  0.00000000       0.019
   0.13505484  0.00000000  0.00000000       0.019
   0.15756398 -0.01299566  0.00000000       0.037
   0.18007312 -0.02599132  0.00000000       0.037
   0.20258226 -0.03898697  0.00000000       0.037
  -0.18007312  0.18193921  0.00000000       0.037
   0.18007312  0.00000000  0.00000000       0.019
   0.20258226 -0.01299566  0.00000000       0.037
  -0.18007312  0.20793052  0.00000000       0.037
  -0.15756398  0.19493487  0.00000000       0.019
  -0.18007312  0.23392184  0.00000000       0.019
  -0.15756398  0.22092618  0.00000000       0.037
  -0.13505484  0.23392184  0.00000000       0.006
   0.00000000  0.00000000  0.00000000       0.000
   0.00431026  0.00248853  0.00000000       0.000
   0.00862052  0.00497706  0.00000000       0.000
   0.01293078  0.00746559  0.00000000       0.000
   0.01724104  0.00995412  0.00000000       0.000
   0.02155130  0.01244265  0.00000000       0.000
   0.02586156  0.01493118  0.00000000       0.000
   0.03017183  0.01741971  0.00000000       0.000
   0.03448209  0.01990824  0.00000000       0.000
   0.03879235  0.02239677  0.00000000       0.000
   0.04310261  0.02488530  0.00000000       0.000
   0.04741287  0.02737383  0.00000000       0.000
   0.05172313  0.02986236  0.00000000       0.000
   0.05603339  0.03235089  0.00000000       0.000
   0.06034365  0.03483942  0.00000000       0.000
   0.06465391  0.03732795  0.00000000       0.000
   0.06896417  0.03981648  0.00000000       0.000
   0.07327443  0.04230501  0.00000000       0.000
   0.07758469  0.04479354  0.00000000       0.000
   0.08189495  0.04728207  0.00000000       0.000
   0.08620522  0.04977060  0.00000000       0.000
   0.09051548  0.05225913  0.00000000       0.000
   0.09482574  0.05474766  0.00000000       0.000
   0.09913600  0.05723619  0.00000000       0.000
   0.10344626  0.05972473  0.00000000       0.000
   0.10775652  0.06221326  0.00000000       0.000
   0.11206678  0.06470179  0.00000000       0.000
   0.11637704  0.06719032  0.00000000       0.000
   0.12068730  0.06967885  0.00000000       0.000
   0.12499756  0.07216738  0.00000000       0.000
   0.12930782  0.07465591  0.00000000       0.000
   0.13361808  0.07714444  0.00000000       0.000
   0.13792834  0.07963297  0.00000000       0.000
   0.14223861  0.08212150  0.00000000       0.000
   0.14654887  0.08461003  0.00000000       0.000
   0.15085913  0.08709856  0.00000000       0.000
   0.15516939  0.08958709  0.00000000       0.000
   0.15947965  0.09207562  0.00000000       0.000
   0.16378991  0.09456415  0.00000000       0.000
   0.16810017  0.09705268  0.00000000       0.000
   0.17241043  0.09954121  0.00000000       0.000
   0.17672069  0.10202974  0.00000000       0.000
   0.18103095  0.10451827  0.00000000       0.000
   0.18534121  0.10700680  0.00000000       0.000
   0.18965147  0.10949533  0.00000000       0.000
   0.19396173  0.11198386  0.00000000       0.000
   0.19827200  0.11447239  0.00000000       0.000
   0.20258226  0.11696092  0.00000000       0.000
   0.20258226  0.11696092  0.00000000       0.000
   0.20008124  0.12129281  0.00000000       0.000
   0.19758022  0.12562469  0.00000000       0.000
   0.19507921  0.12995658  0.00000000       0.000
   0.19257819  0.13428846  0.00000000       0.000
   0.19007718  0.13862035  0.00000000       0.000
   0.18757616  0.14295224  0.00000000       0.000
   0.18507515  0.14728412  0.00000000       0.000
   0.18257413  0.15161601  0.00000000       0.000
   0.18007312  0.15594789  0.00000000       0.000
   0.17757210  0.16027978  0.00000000       0.000
   0.17507109  0.16461167  0.00000000       0.000
   0.17257007  0.16894355  0.00000000       0.000
   0.17006905  0.17327544  0.00000000       0.000
   0.16756804  0.17760732  0.00000000       0.000
   0.16506702  0.18193921  0.00000000       0.000
   0.16256601  0.18627109  0.00000000       0.000
   0.16006499  0.19060298  0.00000000       0.000
   0.15756398  0.19493487  0.00000000       0.000
   0.15506296  0.19926675  0.00000000       0.000
   0.15256195  0.20359864  0.00000000       0.000
   0.15006093  0.20793052  0.00000000       0.000
   0.14755991  0.21226241  0.00000000       0.000
   0.14505890  0.21659430  0.00000000       0.000
   0.14255788  0.22092618  0.00000000       0.000
   0.14005687  0.22525807  0.00000000       0.000
   0.13755585  0.22958995  0.00000000       0.000
   0.13505484  0.23392184  0.00000000       0.000
   0.13505484  0.23392184  0.00000000       0.000
   0.13259929  0.22966872  0.00000000       0.000
   0.13014375  0.22541559  0.00000000       0.000
   0.12768821  0.22116247  0.00000000       0.000
   0.12523267  0.21690934  0.00000000       0.000
   0.12277712  0.21265622  0.00000000       0.000
   0.12032158  0.20840309  0.00000000       0.000
   0.11786604  0.20414997  0.00000000       0.000
   0.11541050  0.19989685  0.00000000       0.000
   0.11295495  0.19564372  0.00000000       0.000
   0.11049941  0.19139060  0.00000000       0.000
   0.10804387  0.18713747  0.00000000       0.000
   0.10558833  0.18288435  0.00000000       0.000
   0.10313278  0.17863122  0.00000000       0.000
   0.10067724  0.17437810  0.00000000       0.000
   0.09822170  0.17012497  0.00000000       0.000
   0.09576616  0.16587185  0.00000000       0.000
   0.09331061  0.16161873  0.00000000       0.000
   0.09085507  0.15736560  0.00000000       0.000
   0.08839953  0.15311248  0.00000000       0.000
   0.08594399  0.14885935  0.00000000       0.000
   0.08348844  0.14460623  0.00000000       0.000
   0.08103290  0.14035310  0.00000000       0.000
   0.07857736  0.13609998  0.00000000       0.000
   0.07612182  0.13184686  0.00000000       0.000
   0.07366627  0.12759373  0.00000000       0.000
   0.07121073  0.12334061  0.00000000       0.000
   0.06875519  0.11908748  0.00000000       0.000
   0.06629965  0.11483436  0.00000000       0.000
   0.06384410  0.11058123  0.00000000       0.000
   0.06138856  0.10632811  0.00000000       0.000
   0.05893302  0.10207498  0.00000000       0.000
   0.05647748  0.09782186  0.00000000       0.000
   0.05402193  0.09356874  0.00000000       0.000
   0.05156639  0.08931561  0.00000000       0.000
   0.04911085  0.08506249  0.00000000       0.000
   0.04665531  0.08080936  0.00000000       0.000
   0.04419976  0.07655624  0.00000000       0.000
   0.04174422  0.07230311  0.00000000       0.000
   0.03928868  0.06804999  0.00000000       0.000
   0.03683314  0.06379687  0.00000000       0.000
   0.03437759  0.05954374  0.00000000       0.000
   0.03192205  0.05529062  0.00000000       0.000
   0.02946651  0.05103749  0.00000000       0.000
   0.02701097  0.04678437  0.00000000       0.000
   0.02455542  0.04253124  0.00000000       0.000
   0.02209988  0.03827812  0.00000000       0.000
   0.01964434  0.03402499  0.00000000       0.000
   0.01718880  0.02977187  0.00000000       0.000
   0.01473325  0.02551875  0.00000000       0.000
   0.01227771  0.02126562  0.00000000       0.000
   0.00982217  0.01701250  0.00000000       0.000
   0.00736663  0.01275937  0.00000000       0.000
   0.00491108  0.00850625  0.00000000       0.000
   0.00245554  0.00425312  0.00000000       0.000
   0.00000000  0.00000000  0.00000000       0.000
 
 k-points in reciprocal lattice and weights: 0.030  18  18   1   37  0.030  132    3 
   0.00000000  0.00000000  0.00000000       0.003
   0.05555556  0.00000000  0.00000000       0.019
   0.11111111  0.00000000  0.00000000       0.019
   0.16666667  0.00000000  0.00000000       0.019
   0.22222222  0.00000000  0.00000000       0.019
   0.27777778  0.00000000  0.00000000       0.019
   0.33333333  0.00000000  0.00000000       0.019
   0.38888889  0.00000000  0.00000000       0.019
   0.44444444  0.00000000  0.00000000       0.019
   0.50000000  0.00000000  0.00000000       0.009
   0.11111111  0.05555556  0.00000000       0.019
   0.16666667  0.05555556  0.00000000       0.037
   0.22222222  0.05555556  0.00000000       0.037
   0.27777778  0.05555556  0.00000000       0.037
   0.33333333  0.05555556  0.00000000       0.037
   0.38888889  0.05555556  0.00000000       0.037
   0.44444444  0.05555556  0.00000000       0.037
   0.50000000  0.05555556  0.00000000       0.037
   0.22222222  0.11111111  0.00000000       0.019
   0.27777778  0.11111111  0.00000000       0.037
   0.33333333  0.11111111  0.00000000       0.037
   0.38888889  0.11111111  0.00000000       0.037
   0.44444444  0.11111111  0.00000000       0.037
   0.50000000  0.11111111  0.00000000       0.037
  -0.44444444  0.11111111  0.00000000       0.019
   0.33333333  0.16666667  0.00000000       0.019
   0.38888889  0.16666667  0.00000000       0.037
   0.44444444  0.16666667  0.00000000       0.037
   0.50000000  0.16666667  0.00000000       0.037
  -0.44444444  0.16666667  0.00000000       0.037
   0.44444444  0.22222222  0.00000000       0.019
   0.50000000  0.22222222  0.00000000       0.037
  -0.44444444  0.22222222  0.00000000       0.037
  -0.38888889  0.22222222  0.00000000       0.019
  -0.44444444  0.27777778  0.00000000       0.019
  -0.38888889  0.27777778  0.00000000       0.037
  -0.33333333  0.33333333  0.00000000       0.006
   0.00000000  0.00000000  0.00000000       0.000
   0.01063830  0.01063830  0.00000000       0.000
   0.02127660  0.02127660  0.00000000       0.000
   0.03191489  0.03191489  0.00000000       0.000
   0.04255319  0.04255319  0.00000000       0.000
   0.05319149  0.05319149  0.00000000       0.000
   0.06382979  0.06382979  0.00000000       0.000
   0.07446809  0.07446809  0.00000000       0.000
   0.08510638  0.08510638  0.00000000       0.000
   0.09574468  0.09574468  0.00000000       0.000
   0.10638298  0.10638298  0.00000000       0.000
   0.11702128  0.11702128  0.00000000       0.000
   0.12765957  0.12765957  0.00000000       0.000
   0.13829787  0.13829787  0.00000000       0.000
   0.14893617  0.14893617  0.00000000       0.000
   0.15957447  0.15957447  0.00000000       0.000
   0.17021277  0.17021277  0.00000000       0.000
   0.18085106  0.18085106  0.00000000       0.000
   0.19148936  0.19148936  0.00000000       0.000
   0.20212766  0.20212766  0.00000000       0.000
   0.21276596  0.21276596  0.00000000       0.000
   0.22340426  0.22340426  0.00000000       0.000
   0.23404255  0.23404255  0.00000000       0.000
   0.24468085  0.24468085  0.00000000       0.000
   0.25531915  0.25531915  0.00000000       0.000
   0.26595745  0.26595745  0.00000000       0.000
   0.27659574  0.27659574  0.00000000       0.000
   0.28723404  0.28723404  0.00000000       0.000
   0.29787234  0.29787234  0.00000000       0.000
   0.30851064  0.30851064  0.00000000       0.000
   0.31914894  0.31914894  0.00000000       0.000
   0.32978723  0.32978723  0.00000000       0.000
   0.34042553  0.34042553  0.00000000       0.000
   0.35106383  0.35106383  0.00000000       0.000
   0.36170213  0.36170213  0.00000000       0.000
   0.37234043  0.37234043  0.00000000       0.000
   0.38297872  0.38297872  0.00000000       0.000
   0.39361702  0.39361702  0.00000000       0.000
   0.40425532  0.40425532  0.00000000       0.000
   0.41489362  0.41489362  0.00000000       0.000
   0.42553191  0.42553191  0.00000000       0.000
   0.43617021  0.43617021  0.00000000       0.000
   0.44680851  0.44680851  0.00000000       0.000
   0.45744681  0.45744681  0.00000000       0.000
   0.46808511  0.46808511  0.00000000       0.000
   0.47872340  0.47872340  0.00000000       0.000
   0.48936170  0.48936170  0.00000000       0.000
   0.50000000  0.50000000  0.00000000       0.000
   0.50000000  0.50000000  0.00000000       0.000
   0.49382716  0.50617284  0.00000000       0.000
   0.48765432  0.51234568  0.00000000       0.000
   0.48148148  0.51851852  0.00000000       0.000
   0.47530864  0.52469136  0.00000000       0.000
   0.46913580  0.53086420  0.00000000       0.000
   0.46296296  0.53703704  0.00000000       0.000
   0.45679012  0.54320988  0.00000000       0.000
   0.45061728  0.54938272  0.00000000       0.000
   0.44444444  0.55555556  0.00000000       0.000
   0.43827160  0.56172840  0.00000000       0.000
   0.43209877  0.56790123  0.00000000       0.000
   0.42592593  0.57407407  0.00000000       0.000
   0.41975309  0.58024691  0.00000000       0.000
   0.41358025  0.58641975  0.00000000       0.000
   0.40740741  0.59259259  0.00000000       0.000
   0.40123457  0.59876543  0.00000000       0.000
   0.39506173  0.60493827  0.00000000       0.000
   0.38888889  0.61111111  0.00000000       0.000
   0.38271605  0.61728395  0.00000000       0.000
   0.37654321  0.62345679  0.00000000       0.000
   0.37037037  0.62962963  0.00000000       0.000
   0.36419753  0.63580247  0.00000000       0.000
   0.35802469  0.64197531  0.00000000       0.000
   0.35185185  0.64814815  0.00000000       0.000
   0.34567901  0.65432099  0.00000000       0.000
   0.33950617  0.66049383  0.00000000       0.000
   0.33333333  0.66666667  0.00000000       0.000
   0.33333333  0.66666667  0.00000000       0.000
   0.32727273  0.65454545  0.00000000       0.000
   0.32121212  0.64242424  0.00000000       0.000
   0.31515152  0.63030303  0.00000000       0.000
   0.30909091  0.61818182  0.00000000       0.000
   0.30303030  0.60606061  0.00000000       0.000
   0.29696970  0.59393939  0.00000000       0.000
   0.29090909  0.58181818  0.00000000       0.000
   0.28484848  0.56969697  0.00000000       0.000
   0.27878788  0.55757576  0.00000000       0.000
   0.27272727  0.54545455  0.00000000       0.000
   0.26666667  0.53333333  0.00000000       0.000
   0.26060606  0.52121212  0.00000000       0.000
   0.25454545  0.50909091  0.00000000       0.000
   0.24848485  0.49696970  0.00000000       0.000
   0.24242424  0.48484848  0.00000000       0.000
   0.23636364  0.47272727  0.00000000       0.000
   0.23030303  0.46060606  0.00000000       0.000
   0.22424242  0.44848485  0.00000000       0.000
   0.21818182  0.43636364  0.00000000       0.000
   0.21212121  0.42424242  0.00000000       0.000
   0.20606061  0.41212121  0.00000000       0.000
   0.20000000  0.40000000  0.00000000       0.000
   0.19393939  0.38787879  0.00000000       0.000
   0.18787879  0.37575758  0.00000000       0.000
   0.18181818  0.36363636  0.00000000       0.000
   0.17575758  0.35151515  0.00000000       0.000
   0.16969697  0.33939394  0.00000000       0.000
   0.16363636  0.32727273  0.00000000       0.000
   0.15757576  0.31515152  0.00000000       0.000
   0.15151515  0.30303030  0.00000000       0.000
   0.14545455  0.29090909  0.00000000       0.000
   0.13939394  0.27878788  0.00000000       0.000
   0.13333333  0.26666667  0.00000000       0.000
   0.12727273  0.25454545  0.00000000       0.000
   0.12121212  0.24242424  0.00000000       0.000
   0.11515152  0.23030303  0.00000000       0.000
   0.10909091  0.21818182  0.00000000       0.000
   0.10303030  0.20606061  0.00000000       0.000
   0.09696970  0.19393939  0.00000000       0.000
   0.09090909  0.18181818  0.00000000       0.000
   0.08484848  0.16969697  0.00000000       0.000
   0.07878788  0.15757576  0.00000000       0.000
   0.07272727  0.14545455  0.00000000       0.000
   0.06666667  0.13333333  0.00000000       0.000
   0.06060606  0.12121212  0.00000000       0.000
   0.05454545  0.10909091  0.00000000       0.000
   0.04848485  0.09696970  0.00000000       0.000
   0.04242424  0.08484848  0.00000000       0.000
   0.03636364  0.07272727  0.00000000       0.000
   0.03030303  0.06060606  0.00000000       0.000
   0.02424242  0.04848485  0.00000000       0.000
   0.01818182  0.03636364  0.00000000       0.000
   0.01212121  0.02424242  0.00000000       0.000
   0.00606061  0.01212121  0.00000000       0.000
   0.00000000  0.00000000  0.00000000       0.000
 
[...]
      5       3.0087      0.00000
      6       6.2548      0.00000
      7       7.2859      0.00000
      8       8.2000      0.00000

 k-point   134 :       0.2121    0.4242    0.0000
  band No.  band energies     occupation 
      1     -20.4717      2.00000
      2     -12.7580      2.00000
      3     -11.0045      2.00000
      4      -6.5705      2.00000
      5       3.3020      0.00000
      6       6.0036      0.00000
      7       7.0498      0.00000
      8       7.9480      0.00000

 k-point   135 :       0.2061    0.4121    0.0000
  band No.  band energies     occupation 
      1     -20.6585      2.00000
      2     -12.5358      2.00000
      3     -10.8022      2.00000
      4      -6.7912      2.00000
      5       3.5976      0.00000
      6       5.7592      0.00000
      7       6.8179      0.00000
      8       7.7029      0.00000

 k-point   136 :       0.2000    0.4000    0.0000
  band No.  band energies     occupation 
      1     -20.8407      2.00000
      2     -12.3101      2.00000
      3     -10.5983      2.00000
      4      -7.0072      2.00000
      5       3.8953      0.00000
      6       5.5216      0.00000
      7       6.5907      0.00000
      8       7.4646      0.00000

 k-point   137 :       0.1939    0.3879    0.0000
  band No.  band energies     occupation 
      1     -21.0180      2.00000
      2     -12.0813      2.00000
      3     -10.3932      2.00000
      4      -7.2182      2.00000
      5       4.1948      0.00000
      6       5.2909      0.00000
      7       6.3687      0.00000
      8       7.2333      0.00000

 k-point   138 :       0.1879    0.3758    0.0000
  band No.  band energies     occupation 
      1     -21.1905      2.00000
      2     -11.8493      2.00000
      3     -10.1871      2.00000
      4      -7.4240      2.00000
      5       4.4957      0.00000
      6       5.0671      0.00000
      7       6.1523      0.00000
      8       7.0089      0.00000

 k-point   139 :       0.1818    0.3636    0.0000
  band No.  band energies     occupation 
      1     -21.3581      2.00000
      2     -11.6144      2.00000
      3      -9.9805      2.00000
      4      -7.6245      2.00000
      5       4.7976      0.00000
      6       4.8502      0.00000
      7       5.9417      0.00000
      8       6.7916      0.00000

 k-point   140 :       0.1758    0.3515    0.0000
  band No.  band energies     occupation 
      1     -21.5206      2.00000
      2     -11.3768      2.00000
      3      -9.7738      2.00000
      4      -7.8194      2.00000
      5       4.6403      0.00000
      6       5.1003      0.00000
      7       5.7372      0.00000
      8       6.5812      0.00000

 k-point   141 :       0.1697    0.3394    0.0000
  band No.  band energies     occupation 
      1     -21.6780      2.00000
      2     -11.1368      2.00000
      3      -9.5674      2.00000
      4      -8.0086      2.00000
      5       4.4374      0.00000
      6       5.4034      0.00000
      7       5.5390      0.00000
      8       6.3779      0.00000

 k-point   142 :       0.1636    0.3273    0.0000
  band No.  band energies     occupation 
      1     -21.8302      2.00000
      2     -10.8946      2.00000
      3      -9.3616      2.00000
      4      -8.1920      2.00000
      5       4.2416      0.00000
      6       5.3471      0.00000
      7       5.7063      0.00000
      8       6.1817      0.00000

 k-point   143 :       0.1576    0.3152    0.0000
  band No.  band energies     occupation 
      1     -21.9773      2.00000
      2     -10.6504      2.00000
      3      -9.1569      2.00000
      4      -8.3695      2.00000
      5       4.0527      0.00000
      6       5.1618      0.00000
      7       5.9925      0.00000
      8       6.0086      0.00000

 k-point   144 :       0.1515    0.3030    0.0000
  band No.  band energies     occupation 
      1     -22.1190      2.00000
      2     -10.4046      2.00000
      3      -8.9537      2.00000
      4      -8.5409      2.00000
      5       3.8710      0.00000
      6       4.9830      0.00000
      7       5.8104      0.00000
      8       6.3099      0.00000

 k-point   145 :       0.1455    0.2909    0.0000
  band No.  band energies     occupation 
      1     -22.2555      2.00000
      2     -10.1575      2.00000
      3      -8.7526      2.00000
      4      -8.7062      2.00000
      5       3.6963      0.00000
      6       4.8109      0.00000
      7       5.6355      0.00000
      8       6.6095      0.00000

 k-point   146 :       0.1394    0.2788    0.0000
  band No.  band energies     occupation 
      1     -22.3867      2.00000
      2      -9.9096      2.00000
      3      -8.8652      2.00000
      4      -8.5539      2.00000
      5       3.5286      0.00000
      6       4.6455      0.00000
      7       5.4676      0.00000
      8       6.9069      0.00000

 k-point   147 :       0.1333    0.2667    0.0000
  band No.  band energies     occupation 
      1     -22.5125      2.00000
      2      -9.6613      2.00000
      3      -9.0179      2.00000
      4      -8.3581      2.00000
      5       3.3681      0.00000
      6       4.4870      0.00000
      7       5.3068      0.00000
      8       7.2013      0.00000

 k-point   148 :       0.1273    0.2545    0.0000
  band No.  band energies     occupation 
      1     -22.6329      2.00000
      2      -9.4130      2.00000
      3      -9.1642      2.00000
      4      -8.1659      2.00000
      5       3.2147      0.00000
      6       4.3353      0.00000
      7       5.1532      0.00000
      8       7.4922      0.00000

 k-point   149 :       0.1212    0.2424    0.0000
  band No.  band energies     occupation 
      1     -22.7478      2.00000
      2      -9.3041      2.00000
      3      -9.1653      2.00000
      4      -7.9776      2.00000
      5       3.0683      0.00000
      6       4.1904      0.00000
      7       5.0068      0.00000
      8       7.7788      0.00000

 k-point   150 :       0.1152    0.2303    0.0000
  band No.  band energies     occupation 
      1     -22.8573      2.00000
      2      -9.4374      2.00000
      3      -8.9189      2.00000
      4      -7.7938      2.00000
      5       2.9291      0.00000
      6       4.0525      0.00000
      7       4.8674      0.00000
      8       8.0604      0.00000

 k-point   151 :       0.1091    0.2182    0.0000
  band No.  band energies     occupation 
      1     -22.9613      2.00000
      2      -9.5642      2.00000
      3      -8.6743      2.00000
      4      -7.6151      2.00000
      5       2.7970      0.00000
      6       3.9216      0.00000
      7       4.7352      0.00000
      8       8.3360      0.00000

 k-point   152 :       0.1030    0.2061    0.0000
  band No.  band energies     occupation 
      1     -23.0598      2.00000
      2      -9.6843      2.00000
      3      -8.4323      2.00000
      4      -7.4420      2.00000
      5       2.6721      0.00000
      6       3.7976      0.00000
      7       4.6101      0.00000
      8       7.9201      0.00000

 k-point   153 :       0.0970    0.1939    0.0000
  band No.  band energies     occupation 
      1     -23.1527      2.00000
      2      -9.7978      2.00000
      3      -8.1938      2.00000
      4      -7.2750      2.00000
      5       2.5542      0.00000
      6       3.6806      0.00000
      7       4.4922      0.00000
      8       7.8488      0.00000

 k-point   154 :       0.0909    0.1818    0.0000
  band No.  band energies     occupation 
      1     -23.2401      2.00000
      2      -9.9046      2.00000
      3      -7.9597      2.00000
      4      -7.1148      2.00000
      5       2.4435      0.00000
      6       3.5706      0.00000
      7       4.3815      0.00000
      8       7.7839      0.00000

 k-point   155 :       0.0848    0.1697    0.0000
  band No.  band energies     occupation 
      1     -23.3220      2.00000
      2     -10.0046      2.00000
      3      -7.7309      2.00000
      4      -6.9617      2.00000
      5       2.3400      0.00000
      6       3.4676      0.00000
      7       4.2779      0.00000
      8       7.7251      0.00000

 k-point   156 :       0.0788    0.1576    0.0000
  band No.  band energies     occupation 
      1     -23.3982      2.00000
      2     -10.0978      2.00000
      3      -7.5086      2.00000
      4      -6.8165      2.00000
      5       2.2436      0.00000
      6       3.3717      0.00000
      7       4.1814      0.00000
      8       7.6723      0.00000

 k-point   157 :       0.0727    0.1455    0.0000
  band No.  band energies     occupation 
      1     -23.4689      2.00000
      2     -10.1843      2.00000
      3      -7.2941      2.00000
      4      -6.6796      2.00000
      5       2.1543      0.00000
      6       3.2828      0.00000
      7       4.0921      0.00000
      8       7.6253      0.00000

 k-point   158 :       0.0667    0.1333    0.0000
  band No.  band energies     occupation 
      1     -23.5339      2.00000
      2     -10.2639      2.00000
      3      -7.0885      2.00000
      4      -6.5514      2.00000
      5       2.0722      0.00000
      6       3.2011      0.00000
      7       4.0100      0.00000
      8       7.5838      0.00000

 k-point   159 :       0.0606    0.1212    0.0000
  band No.  band energies     occupation 
      1     -23.5933      2.00000
      2     -10.3367      2.00000
      3      -6.8933      2.00000
      4      -6.4327      2.00000
      5       1.9972      0.00000
      6       3.1264      0.00000
      7       3.9350      0.00000
      8       7.5477      0.00000

 k-point   160 :       0.0545    0.1091    0.0000
  band No.  band energies     occupation 
      1     -23.6471      2.00000
      2     -10.4026      2.00000
      3      -6.7100      2.00000
      4      -6.3236      2.00000
      5       1.9294      0.00000
      6       3.0588      0.00000
      7       3.8672      0.00000
      8       7.5166      0.00000

 k-point   161 :       0.0485    0.0970    0.0000
  band No.  band energies     occupation 
      1     -23.6953      2.00000
      2     -10.4616      2.00000
      3      -6.5402      2.00000
      4      -6.2248      2.00000
      5       1.8687      0.00000
      6       2.9983      0.00000
      7       3.8065      0.00000
      8       7.4902      0.00000

 k-point   162 :       0.0424    0.0848    0.0000
  band No.  band energies     occupation 
      1     -23.7378      2.00000
      2     -10.5137      2.00000
      3      -6.3853      2.00000
      4      -6.1367      2.00000
      5       1.8151      0.00000
      6       2.9449      0.00000
      7       3.7529      0.00000
      8       7.4681      0.00000

 k-point   163 :       0.0364    0.0727    0.0000
  band No.  band energies     occupation 
      1     -23.7746      2.00000
      2     -10.5589      2.00000
      3      -6.2470      2.00000
      4      -6.0595      2.00000
      5       1.7687      0.00000
      6       2.8986      0.00000
      7       3.7065      0.00000
      8       7.4500      0.00000

 k-point   164 :       0.0303    0.0606    0.0000
  band No.  band energies     occupation 
      1     -23.8058      2.00000
      2     -10.5971      2.00000
      3      -6.1268      2.00000
      4      -5.9936      2.00000
      5       1.7295      0.00000
      6       2.8594      0.00000
      7       3.6673      0.00000
      8       7.4355      0.00000

 k-point   165 :       0.0242    0.0485    0.0000
  band No.  band energies     occupation 
      1     -23.8314      2.00000
      2     -10.6284      2.00000
      3      -6.0262      2.00000
      4      -5.9393      2.00000
      5       1.6974      0.00000
      6       2.8273      0.00000
      7       3.6352      0.00000
      8       7.4242      0.00000

 k-point   166 :       0.0182    0.0364    0.0000
  band No.  band energies     occupation 
      1     -23.8512      2.00000
      2     -10.6528      2.00000
      3      -5.9464      2.00000
      4      -5.8968      2.00000
      5       1.6724      0.00000
      6       2.8024      0.00000
      7       3.6102      0.00000
      8       7.4158      0.00000

 k-point   167 :       0.0121    0.0242    0.0000
  band No.  band energies     occupation 
      1     -23.8654      2.00000
      2     -10.6702      2.00000
      3      -5.8887      2.00000
      4      -5.8664      2.00000
      5       1.6545      0.00000
      6       2.7846      0.00000
      7       3.5924      0.00000
      8       7.4101      0.00000

 k-point   168 :       0.0061    0.0121    0.0000
  band No.  band energies     occupation 
      1     -23.8739      2.00000
      2     -10.6806      2.00000
      3      -5.8536      2.00000
      4      -5.8480      2.00000
      5       1.6438      0.00000
      6       2.7739      0.00000
      7       3.5817      0.00000
      8       7.4068      0.00000

 k-point   169 :       0.0000    0.0000    0.0000
  band No.  band energies     occupation 
      1     -23.8767      2.00000
      2     -10.6841      2.00000
      3      -5.8419      2.00000
      4      -5.8419      2.00000
      5       1.6403      0.00000
      6       2.7703      0.00000
      7       3.5781      0.00000
      8       8.0124      0.00000


--------------------------------------------------------------------------------------------------------


 soft charge-density along one line, spin component           1
         0         1         2         3         4         5         6         7         8         9
 total charge-density along one line
 
 pseudopotential strength for first ion, spin component:           1
  9.894  13.153  -0.000  -0.000  -0.000   0.000   0.000   0.000
 13.153  17.485  -0.000  -0.000  -0.000   0.000   0.000   0.000
 -0.000  -0.000  -4.126  -0.000   0.000   8.044   0.000  -0.000
 -0.000  -0.000  -0.000  -4.125  -0.000   0.000   8.046   0.000
 -0.000  -0.000   0.000  -0.000  -4.126  -0.000   0.000   8.044
  0.000   0.000   8.044   0.000  -0.000 -17.794  -0.000   0.000
  0.000   0.000   0.000   8.046   0.000  -0.000 -17.804  -0.000
  0.000   0.000  -0.000   0.000   8.044   0.000  -0.000 -17.794
 total augmentation occupancy for first ion, spin component:           1
  8.952  -4.096  -0.000  -0.000  -0.000  -0.000  -0.000  -0.000
 -4.096   1.921   0.000   0.000   0.000   0.000   0.000   0.000
 -0.000   0.000   1.834   0.000   0.000   0.177   0.000  -0.000
 -0.000   0.000   0.000   1.194  -0.000   0.000   0.079  -0.000
 -0.000   0.000   0.000  -0.000   1.834   0.000  -0.000   0.177
 -0.000   0.000   0.177   0.000   0.000   0.018   0.000  -0.000
 -0.000   0.000   0.000   0.079  -0.000   0.000   0.006  -0.000
 -0.000   0.000  -0.000  -0.000   0.177  -0.000  -0.000   0.018


------------------------ aborting loop because EDIFF is reached ----------------------------------------


    FORLOC:  cpu time      0.0008: real time      0.0014
    FORHF :  cpu time    165.0829: real time    165.4222
    FORNL :  cpu time      0.0396: real time      0.0429
    STRESS:  cpu time      0.1321: real time      0.1370
    FORCOR:  cpu time      0.0301: real time      0.0328
    OFIELD:  cpu time      0.0002: real time      0.0008

  FORCE on cell =-STRESS in cart. coord.  units (eV):
  Direction    XX          YY          ZZ          XY          YZ          ZX
  --------------------------------------------------------------------------------------
  Alpha Z     5.19040     5.19040     5.19040
  Ewald     828.96970   828.96971 -1097.61002    -0.00001     0.00000    -0.00000
  Hartree   805.17914   805.17914  -793.98689    -0.00000    -0.00000    -0.00000
  E(xc)     -22.63318   -22.63318   -23.11864     0.00000    -0.00000    -0.00000
  Local   -1722.39927 -1722.39930  1786.62960     0.00002     0.00000     0.00000
  n-local    -6.25444    -5.52099    -5.54357    -0.06697     0.00000     0.00000
  augment    -0.74134    -0.74134    -0.72166    -0.00001    -0.00000    -0.00000
  Kinetic   123.06142   115.74547   136.14260     0.11320    -0.00000    -0.00000
  Fock            NaN         NaN         NaN         NaN         NaN         NaN
  -------------------------------------------------------------------------------------
  Total           NaN         NaN         NaN         NaN         NaN         NaN
  in kB           NaN         NaN         NaN         NaN         NaN         NaN
  external pressure =         NaN kB  Pullay stress =        0.00 kB


 VOLUME and BASIS-vectors are now :
 -----------------------------------------------------------------------------
  energy-cutoff  :      520.00
  volume of cell :       63.31
      direct lattice vectors                 reciprocal lattice vectors
     2.468133242  0.000000000  0.000000000     0.405164512 -0.233921840  0.000000000
     1.234066621  2.137466087  0.000000000     0.000000000  0.467843680  0.000000000
     0.000000000  0.000000000 12.000000000     0.000000000  0.000000000  0.083333333

  length of vectors
     2.468133242  2.468133242 12.000000000     0.467843680  0.467843680  0.083333333


 FORCES acting on ions:
    Electron-Ion                     Ewald-Force                    Non-Local-Force
 -----------------------------------------------------------------------------------------------
   -.120E-04 -.846E-05 0.177E-04   0.648E-05 0.385E-05 0.322E-19   -.222E-15 -.278E-16 0.000E+00
   -.575E-05 0.964E-05 0.640E-05   -.648E-05 -.385E-05 -.322E-19   0.208E-15 -.278E-16 0.000E+00
 -----------------------------------------------------------------------------------------------
   -.178E-04 0.111E-05 0.240E-04   -.114E-13 0.255E-14 0.000E+00   -.139E-16 -.555E-16 0.000E+00
 
 
 POSITION                                       TOTAL-FORCE (eV/Angst)
 -----------------------------------------------------------------------------------
      0.00000      0.00000      6.00000              NaN           NaN           NaN
      1.23407      0.71249      6.00000              NaN           NaN           NaN
 -----------------------------------------------------------------------------------
    total drift:                                     NaN           NaN           NaN


--------------------------------------------------------------------------------------------------------



  FREE ENERGIE OF THE ION-ELECTRON SYSTEM (eV)
  ---------------------------------------------------
  free  energy   TOTEN  =       -21.19719244 eV

  energy  without entropy=      -21.19684417  energy(sigma->0) =      -21.19701831
 


--------------------------------------------------------------------------------------------------------


    POTLOK:  cpu time      0.0722: real time      0.0739


--------------------------------------------------------------------------------------------------------


     LOOP+:  cpu time   2358.4341: real time   2362.8150
    4ORBIT:  cpu time      0.0000: real time      0.0000

 total amount of memory used by VASP MPI-rank0    38403. kBytes
=======================================================================

   base      :      30000. kBytes
   nonl-proj :       1583. kBytes
   fftplans  :        553. kBytes
   grid      :        756. kBytes
   one-center:          3. kBytes
   HF        :          4. kBytes
   nonlr-proj:        218. kBytes
   wavefun   :       4995. kBytes
   fock_wrk  :        291. kBytes
 
  
  
 General timing and accounting informations for this job:
 ========================================================
  
                  Total CPU time used (sec):     2379.225
                            User time (sec):     2368.200
                          System time (sec):       11.025
                         Elapsed time (sec):     2385.074
  
                   Maximum memory used (kb):      373952.
                   Average memory used (kb):          N/A
  
                          Minor page faults:       105059
                          Major page faults:            0
                 Voluntary context switches:        30253
