<?xml version="1.0" encoding="ISO-8859-1"?>
<modeling>
 <generator>
  <i name="program" type="string">vasp </i>
  <i name="version" type="string">6.3.0  </i>
  <i name="subversion" type="string">20Jan22 (build Jan 26 2022 20:51:09) complex                          parallel </i>
  <i name="platform" type="string">LinuxIFC </i>
  <i name="date" type="string">2023 07 15 </i>
  <i name="time" type="string">21:36:40 </i>
 </generator>
 <incar>
  <i type="int" name="ISTART">     1</i>
  <i type="string" name="PREC">A       (Precision level)</i>
  <i type="string" name="ALGO">Damped</i>
  <i type="logical" name="ADDGRID"> F  </i>
  <i type="int" name="ISPIN">     1</i>
  <i type="int" name="ICHARG">     1</i>
  <i type="int" name="NELM">   200</i>
  <i type="int" name="IBRION">    -1</i>
  <i name="EDIFF">      0.00000100</i>
  <i name="EDIFFG">     -0.00001000</i>
  <i type="int" name="NSW">     0</i>
  <i type="int" name="ISIF">     3</i>
  <i name="ENCUT">    520.00000000</i>
  <i type="logical" name="LREAL"> F  </i>
  <i name="TIME">      0.40000000</i>
  <i type="int" name="ISMEAR">     0</i>
  <i name="SIGMA">      0.05000000</i>
  <i type="logical" name="LWAVE"> F  </i>
  <i type="logical" name="LCHARG"> F  </i>
  <i name="HFSCREEN">      0.20000000</i>
  <i type="logical" name="LHFCALC"> T  </i>
 </incar>
 <primitive_cell>
  <structure name="primitive_cell" >
   <crystal>
    <varray name="basis" >
     <v>       2.46813324       0.00000000       0.00000000 </v>
     <v>       1.23406662       2.13746609       0.00000000 </v>
     <v>       0.00000000       0.00000000      12.00000000 </v>
    </varray>
    <i name="volume">     63.30661323 </i>
    <varray name="rec_basis" >
     <v>       0.40516451      -0.23392184       0.00000000 </v>
     <v>       0.00000000       0.46784368       0.00000000 </v>
     <v>       0.00000000       0.00000000       0.08333333 </v>
    </varray>
   </crystal>
   <varray name="positions" >
    <v>       0.00000000       0.00000000       0.50000000 </v>
    <v>       0.33333334       0.33333334       0.50000000 </v>
   </varray>
  </structure>
  <varray name="primitive_index" >
   <v type="int" >        1 </v>
   <v type="int" >        2 </v>
  </varray>
 </primitive_cell>
 <kpoints>
  <varray name="kpointlist" >
   <v>       0.00000000       0.00000000       0.00000000 </v>
   <v>       0.05555556       0.00000000       0.00000000 </v>
   <v>       0.11111111       0.00000000       0.00000000 </v>
   <v>       0.16666667       0.00000000       0.00000000 </v>
   <v>       0.22222222       0.00000000       0.00000000 </v>
   <v>       0.27777778       0.00000000       0.00000000 </v>
   <v>       0.33333333       0.00000000       0.00000000 </v>
   <v>       0.38888889       0.00000000       0.00000000 </v>
   <v>       0.44444444       0.00000000       0.00000000 </v>
   <v>       0.50000000       0.00000000       0.00000000 </v>
   <v>       0.11111111       0.05555556       0.00000000 </v>
   <v>       0.16666667       0.05555556       0.00000000 </v>
   <v>       0.22222222       0.05555556       0.00000000 </v>
   <v>       0.27777778       0.05555556       0.00000000 </v>
   <v>       0.33333333       0.05555556       0.00000000 </v>
   <v>       0.38888889       0.05555556       0.00000000 </v>
   <v>       0.44444444       0.05555556       0.00000000 </v>
   <v>       0.50000000       0.05555556       0.00000000 </v>
   <v>       0.22222222       0.11111111       0.00000000 </v>
   <v>       0.27777778       0.11111111       0.00000000 </v>
   <v>       0.33333333       0.11111111       0.00000000 </v>
   <v>       0.38888889       0.11111111       0.00000000 </v>
   <v>       0.44444444       0.11111111       0.00000000 </v>
   <v>       0.50000000       0.11111111       0.00000000 </v>
   <v>      -0.44444444       0.11111111       0.00000000 </v>
   <v>       0.33333333       0.16666667       0.00000000 </v>
   <v>       0.38888889       0.16666667       0.00000000 </v>
   <v>       0.44444444       0.16666667       0.00000000 </v>
   <v>       0.50000000       0.16666667       0.00000000 </v>
   <v>      -0.44444444       0.16666667       0.00000000 </v>
   <v>       0.44444444       0.22222222       0.00000000 </v>
   <v>       0.50000000       0.22222222       0.00000000 </v>
   <v>      -0.44444444       0.22222222       0.00000000 </v>
   <v>      -0.38888889       0.22222222       0.00000000 </v>
   <v>      -0.44444444       0.27777778       0.00000000 </v>
   <v>      -0.38888889       0.27777778       0.00000000 </v>
   <v>      -0.33333333       0.33333333       0.00000000 </v>
   <v>       0.00000000       0.00000000       0.00000000 </v>
   <v>       0.01063830       0.01063830       0.00000000 </v>
   <v>       0.02127660       0.02127660       0.00000000 </v>
   <v>       0.03191489       0.03191489       0.00000000 </v>
   <v>       0.04255319       0.04255319       0.00000000 </v>
   <v>       0.05319149       0.05319149       0.00000000 </v>
   <v>       0.06382979       0.06382979       0.00000000 </v>
   <v>       0.07446809       0.07446809       0.00000000 </v>
   <v>       0.08510638       0.08510638       0.00000000 </v>
   <v>       0.09574468       0.09574468       0.00000000 </v>
   <v>       0.10638298       0.10638298       0.00000000 </v>
   <v>       0.11702128       0.11702128       0.00000000 </v>
   <v>       0.12765957       0.12765957       0.00000000 </v>
   <v>       0.13829787       0.13829787       0.00000000 </v>
   <v>       0.14893617       0.14893617       0.00000000 </v>
   <v>       0.15957447       0.15957447       0.00000000 </v>
   <v>       0.17021277       0.17021277       0.00000000 </v>
   <v>       0.18085106       0.18085106       0.00000000 </v>
   <v>       0.19148936       0.19148936       0.00000000 </v>
   <v>       0.20212766       0.20212766       0.00000000 </v>
   <v>       0.21276596       0.21276596       0.00000000 </v>
   <v>       0.22340426       0.22340426       0.00000000 </v>
   <v>       0.23404255       0.23404255       0.00000000 </v>
   <v>       0.24468085       0.24468085       0.00000000 </v>
   <v>       0.25531915       0.25531915       0.00000000 </v>
   <v>       0.26595745       0.26595745       0.00000000 </v>
   <v>       0.27659574       0.27659574       0.00000000 </v>
   <v>       0.28723404       0.28723404       0.00000000 </v>
   <v>       0.29787234       0.29787234       0.00000000 </v>
   <v>       0.30851064       0.30851064       0.00000000 </v>
   <v>       0.31914894       0.31914894       0.00000000 </v>
   <v>       0.32978723       0.32978723       0.00000000 </v>
   <v>       0.34042553       0.34042553       0.00000000 </v>
   <v>       0.35106383       0.35106383       0.00000000 </v>
   <v>       0.36170213       0.36170213       0.00000000 </v>
   <v>       0.37234043       0.37234043       0.00000000 </v>
   <v>       0.38297872       0.38297872       0.00000000 </v>
   <v>       0.39361702       0.39361702       0.00000000 </v>
   <v>       0.40425532       0.40425532       0.00000000 </v>
   <v>       0.41489362       0.41489362       0.00000000 </v>
   <v>       0.42553191       0.42553191       0.00000000 </v>
   <v>       0.43617021       0.43617021       0.00000000 </v>
   <v>       0.44680851       0.44680851       0.00000000 </v>
   <v>       0.45744681       0.45744681       0.00000000 </v>
   <v>       0.46808511       0.46808511       0.00000000 </v>
   <v>       0.47872340       0.47872340       0.00000000 </v>
   <v>       0.48936170       0.48936170       0.00000000 </v>
   <v>       0.50000000       0.50000000       0.00000000 </v>
   <v>       0.50000000       0.50000000       0.00000000 </v>
   <v>       0.49382716       0.50617284       0.00000000 </v>
   <v>       0.48765432       0.51234568       0.00000000 </v>
   <v>       0.48148148       0.51851852       0.00000000 </v>
   <v>       0.47530864       0.52469136       0.00000000 </v>
   <v>       0.46913580       0.53086420       0.00000000 </v>
   <v>       0.46296296       0.53703704       0.00000000 </v>
   <v>       0.45679012       0.54320988       0.00000000 </v>
   <v>       0.45061728       0.54938272       0.00000000 </v>
   <v>       0.44444444       0.55555556       0.00000000 </v>
   <v>       0.43827160       0.56172840       0.00000000 </v>
   <v>       0.43209877       0.56790123       0.00000000 </v>
   <v>       0.42592593       0.57407407       0.00000000 </v>
   <v>       0.41975309       0.58024691       0.00000000 </v>
   <v>       0.41358025       0.58641975       0.00000000 </v>
   <v>       0.40740741       0.59259259       0.00000000 </v>
   <v>       0.40123457       0.59876543       0.00000000 </v>
   <v>       0.39506173       0.60493827       0.00000000 </v>
   <v>       0.38888889       0.61111111       0.00000000 </v>
   <v>       0.38271605       0.61728395       0.00000000 </v>
   <v>       0.37654321       0.62345679       0.00000000 </v>
   <v>       0.37037037       0.62962963       0.00000000 </v>
   <v>       0.36419753       0.63580247       0.00000000 </v>
   <v>       0.35802469       0.64197531       0.00000000 </v>
   <v>       0.35185185       0.64814815       0.00000000 </v>
   <v>       0.34567901       0.65432099       0.00000000 </v>
   <v>       0.33950617       0.66049383       0.00000000 </v>
   <v>       0.33333333       0.66666667       0.00000000 </v>
   <v>       0.33333333       0.66666667       0.00000000 </v>
   <v>       0.32727273       0.65454545       0.00000000 </v>
   <v>       0.32121212       0.64242424       0.00000000 </v>
   <v>       0.31515152       0.63030303       0.00000000 </v>
   <v>       0.30909091       0.61818182       0.00000000 </v>
   <v>       0.30303030       0.60606061       0.00000000 </v>
   <v>       0.29696970       0.59393939       0.00000000 </v>
   <v>       0.29090909       0.58181818       0.00000000 </v>
   <v>       0.28484848       0.56969697       0.00000000 </v>
   <v>       0.27878788       0.55757576       0.00000000 </v>
   <v>       0.27272727       0.54545455       0.00000000 </v>
   <v>       0.26666667       0.53333333       0.00000000 </v>
   <v>       0.26060606       0.52121212       0.00000000 </v>
   <v>       0.25454545       0.50909091       0.00000000 </v>
   <v>       0.24848485       0.49696970       0.00000000 </v>
   <v>       0.24242424       0.48484848       0.00000000 </v>
   <v>       0.23636364       0.47272727       0.00000000 </v>
   <v>       0.23030303       0.46060606       0.00000000 </v>
   <v>       0.22424242       0.44848485       0.00000000 </v>
   <v>       0.21818182       0.43636364       0.00000000 </v>
   <v>       0.21212121       0.42424242       0.00000000 </v>
   <v>       0.20606061       0.41212121       0.00000000 </v>
   <v>       0.20000000       0.40000000       0.00000000 </v>
   <v>       0.19393939       0.38787879       0.00000000 </v>
   <v>       0.18787879       0.37575758       0.00000000 </v>
   <v>       0.18181818       0.36363636       0.00000000 </v>
   <v>       0.17575758       0.35151515       0.00000000 </v>
   <v>       0.16969697       0.33939394       0.00000000 </v>
   <v>       0.16363636       0.32727273       0.00000000 </v>
   <v>       0.15757576       0.31515152       0.00000000 </v>
   <v>       0.15151515       0.30303030       0.00000000 </v>
   <v>       0.14545455       0.29090909       0.00000000 </v>
   <v>       0.13939394       0.27878788       0.00000000 </v>
   <v>       0.13333333       0.26666667       0.00000000 </v>
   <v>       0.12727273       0.25454545       0.00000000 </v>
   <v>       0.12121212       0.24242424       0.00000000 </v>
   <v>       0.11515152       0.23030303       0.00000000 </v>
   <v>       0.10909091       0.21818182       0.00000000 </v>
   <v>       0.10303030       0.20606061       0.00000000 </v>
   <v>       0.09696970       0.19393939       0.00000000 </v>
   <v>       0.09090909       0.18181818       0.00000000 </v>
   <v>       0.08484848       0.16969697       0.00000000 </v>
   <v>       0.07878788       0.15757576       0.00000000 </v>
   <v>       0.07272727       0.14545455       0.00000000 </v>
   <v>       0.06666667       0.13333333       0.00000000 </v>
   <v>       0.06060606       0.12121212       0.00000000 </v>
   <v>       0.05454545       0.10909091       0.00000000 </v>
   <v>       0.04848485       0.09696970       0.00000000 </v>
   <v>       0.04242424       0.08484848       0.00000000 </v>
   <v>       0.03636364       0.07272727       0.00000000 </v>
   <v>       0.03030303       0.06060606       0.00000000 </v>
   <v>       0.02424242       0.04848485       0.00000000 </v>
   <v>       0.01818182       0.03636364       0.00000000 </v>
   <v>       0.01212121       0.02424242       0.00000000 </v>
   <v>       0.00606061       0.01212121       0.00000000 </v>
   <v>       0.00000000       0.00000000       0.00000000 </v>
  </varray>
  <varray name="weights" >
   <v>       0.00308642 </v>
   <v>       0.01851852 </v>
   <v>       0.01851852 </v>
   <v>       0.01851852 </v>
   <v>       0.01851852 </v>
   <v>       0.01851852 </v>
   <v>       0.01851852 </v>
   <v>       0.01851852 </v>
   <v>       0.01851852 </v>
   <v>       0.00925926 </v>
   <v>       0.01851852 </v>
   <v>       0.03703704 </v>
   <v>       0.03703704 </v>
   <v>       0.03703704 </v>
   <v>       0.03703704 </v>
   <v>       0.03703704 </v>
   <v>       0.03703704 </v>
   <v>       0.03703704 </v>
   <v>       0.01851852 </v>
   <v>       0.03703704 </v>
   <v>       0.03703704 </v>
   <v>       0.03703704 </v>
   <v>       0.03703704 </v>
   <v>       0.03703704 </v>
   <v>       0.01851852 </v>
   <v>       0.01851852 </v>
   <v>       0.03703704 </v>
   <v>       0.03703704 </v>
   <v>       0.03703704 </v>
   <v>       0.03703704 </v>
   <v>       0.01851852 </v>
   <v>       0.03703704 </v>
   <v>       0.03703704 </v>
   <v>       0.01851852 </v>
   <v>       0.01851852 </v>
   <v>       0.03703704 </v>
   <v>       0.00617284 </v>
   <v>       0.00000000 </v>
   <v>       0.00000000 </v>
   <v>       0.00000000 </v>
   <v>       0.00000000 </v>
   <v>       0.00000000 </v>
   <v>       0.00000000 </v>
   <v>       0.00000000 </v>
   <v>       0.00000000 </v>
   <v>       0.00000000 </v>
   <v>       0.00000000 </v>
   <v>       0.00000000 </v>
   <v>       0.00000000 </v>
   <v>       0.00000000 </v>
   <v>       0.00000000 </v>
   <v>       0.00000000 </v>
   <v>       0.00000000 </v>
   <v>       0.00000000 </v>
   <v>       0.00000000 </v>
   <v>       0.00000000 </v>
   <v>       0.00000000 </v>
   <v>       0.00000000 </v>
   <v>       0.00000000 </v>
   <v>       0.00000000 </v>
   <v>       0.00000000 </v>
   <v>       0.00000000 </v>
   <v>       0.00000000 </v>
   <v>       0.00000000 </v>
   <v>       0.00000000 </v>
   <v>       0.00000000 </v>
   <v>       0.00000000 </v>
   <v>       0.00000000 </v>
   <v>       0.00000000 </v>
   <v>       0.00000000 </v>
   <v>       0.00000000 </v>
   <v>       0.00000000 </v>
   <v>       0.00000000 </v>
   <v>       0.00000000 </v>
   <v>       0.00000000 </v>
   <v>       0.00000000 </v>
   <v>       0.00000000 </v>
   <v>       0.00000000 </v>
   <v>       0.00000000 </v>
   <v>       0.00000000 </v>
   <v>       0.00000000 </v>
   <v>       0.00000000 </v>
   <v>       0.00000000 </v>
   <v>       0.00000000 </v>
   <v>       0.00000000 </v>
   <v>       0.00000000 </v>
   <v>       0.00000000 </v>
   <v>       0.00000000 </v>
   <v>       0.00000000 </v>
   <v>       0.00000000 </v>
   <v>       0.00000000 </v>
   <v>       0.00000000 </v>
   <v>       0.00000000 </v>
   <v>       0.00000000 </v>
   <v>       0.00000000 </v>
   <v>       0.00000000 </v>
   <v>       0.00000000 </v>
   <v>       0.00000000 </v>
   <v>       0.00000000 </v>
   <v>       0.00000000 </v>
   <v>       0.00000000 </v>
   <v>       0.00000000 </v>
   <v>       0.00000000 </v>
   <v>       0.00000000 </v>
   <v>       0.00000000 </v>
   <v>       0.00000000 </v>
   <v>       0.00000000 </v>
   <v>       0.00000000 </v>
   <v>       0.00000000 </v>
   <v>       0.00000000 </v>
   <v>       0.00000000 </v>
   <v>       0.00000000 </v>
   <v>       0.00000000 </v>
   <v>       0.00000000 </v>
   <v>       0.00000000 </v>
   <v>       0.00000000 </v>
   <v>       0.00000000 </v>
   <v>       0.00000000 </v>
   <v>       0.00000000 </v>
   <v>       0.00000000 </v>
   <v>       0.00000000 </v>
   <v>       0.00000000 </v>
   <v>       0.00000000 </v>
   <v>       0.00000000 </v>
   <v>       0.00000000 </v>
   <v>       0.00000000 </v>
   <v>       0.00000000 </v>
   <v>       0.00000000 </v>
   <v>       0.00000000 </v>
   <v>       0.00000000 </v>
   <v>       0.00000000 </v>
   <v>       0.00000000 </v>
   <v>       0.00000000 </v>
   <v>       0.00000000 </v>
   <v>       0.00000000 </v>
   <v>       0.00000000 </v>
   <v>       0.00000000 </v>
   <v>       0.00000000 </v>
   <v>       0.00000000 </v>
   <v>       0.00000000 </v>
   <v>       0.00000000 </v>
   <v>       0.00000000 </v>
   <v>       0.00000000 </v>
   <v>       0.00000000 </v>
   <v>       0.00000000 </v>
   <v>       0.00000000 </v>
   <v>       0.00000000 </v>
   <v>       0.00000000 </v>
   <v>       0.00000000 </v>
   <v>       0.00000000 </v>
   <v>       0.00000000 </v>
   <v>       0.00000000 </v>
   <v>       0.00000000 </v>
   <v>       0.00000000 </v>
   <v>       0.00000000 </v>
   <v>       0.00000000 </v>
   <v>       0.00000000 </v>
   <v>       0.00000000 </v>
   <v>       0.00000000 </v>
   <v>       0.00000000 </v>
   <v>       0.00000000 </v>
   <v>       0.00000000 </v>
   <v>       0.00000000 </v>
   <v>       0.00000000 </v>
   <v>       0.00000000 </v>
   <v>       0.00000000 </v>
   <v>       0.00000000 </v>
   <v>       0.00000000 </v>
   <v>       0.00000000 </v>
  </varray>
 </kpoints>
 <parameters>
  <separator name="general" >
   <i type="string" name="SYSTEM">unknown system</i>
   <i type="logical" name="LCOMPAT"> F  </i>
  </separator>
  <separator name="electronic" >
   <i type="string" name="PREC">a</i>
   <i name="ENMAX">    520.00000000</i>
   <i name="ENAUG">    644.87300000</i>
   <i name="EDIFF">      0.00000100</i>
   <i type="int" name="IALGO">    53</i>
   <i type="int" name="IWAVPR">    10</i>
   <i type="int" name="NBANDS">     8</i>
   <i type="int" name="NBANDSLOW">    -1</i>
   <i type="int" name="NBANDSHIGH">    -1</i>
   <i name="NELECT">      8.00000000</i>
   <i type="int" name="TURBO">     0</i>
   <i type="int" name="IRESTART">     0</i>
   <i type="int" name="NREBOOT">     0</i>
   <i type="int" name="NMIN">     0</i>
   <i name="EREF">      0.00000000</i>
   <separator name="electronic smearing" >
    <i type="int" name="ISMEAR">     0</i>
    <i name="SIGMA">      0.05000000</i>
    <i name="KSPACING">      0.50000000</i>
    <i type="logical" name="KGAMMA"> T  </i>
    <i type="logical" name="KBLOWUP"> T  </i>
   </separator>
   <separator name="electronic projectors" >
    <i type="logical" name="LREAL"> F  </i>
    <v name="ROPT">      0.00000000</v>
    <i type="int" name="LMAXPAW">  -100</i>
    <i type="int" name="LMAXMIX">     2</i>
    <i type="logical" name="NLSPLINE"> F  </i>
   </separator>
   <separator name="electronic startup" >
    <i type="int" name="ISTART">     1</i>
    <i type="int" name="ICHARG">     1</i>
    <i type="int" name="INIWAV">     1</i>
   </separator>
   <separator name="electronic spin" >
    <i type="int" name="ISPIN">     1</i>
    <i type="logical" name="LNONCOLLINEAR"> F  </i>
    <v name="MAGMOM">      1.00000000      1.00000000</v>
    <i name="NUPDOWN">     -1.00000000</i>
    <i type="logical" name="LSORBIT"> F  </i>
    <v name="SAXIS">      0.00000000      0.00000000      1.00000000</v>
    <i type="logical" name="LSPIRAL"> F  </i>
    <v name="QSPIRAL">      0.00000000      0.00000000      0.00000000</v>
    <i type="logical" name="LZEROZ"> F  </i>
   </separator>
   <separator name="electronic exchange-correlation" >
    <i type="logical" name="LASPH"> F  </i>
    <i type="logical" name="LMETAGGA"> F  </i>
   </separator>
   <separator name="electronic convergence" >
    <i type="int" name="NELM">   200</i>
    <i type="int" name="NELMDL">     0</i>
    <i type="int" name="NELMIN">     2</i>
    <i name="ENINI">    520.00000000</i>
    <separator name="electronic convergence detail" >
     <i type="logical" name="LDIAG"> T  </i>
     <i type="logical" name="LSUBROT"> F  </i>
     <i name="WEIMIN">      0.00000000</i>
     <i name="EBREAK">      0.00000003</i>
     <i name="DEPER">      0.30000000</i>
     <i type="int" name="NRMM">     4</i>
     <i name="TIME">      0.40000000</i>
    </separator>
   </separator>
   <separator name="electronic mixer" >
    <i name="AMIX">      0.40000000</i>
    <i name="BMIX">      1.00000000</i>
    <i name="AMIN">      0.10000000</i>
    <i name="AMIX_MAG">      1.60000000</i>
    <i name="BMIX_MAG">      1.00000000</i>
    <separator name="electronic mixer details" >
     <i type="int" name="IMIX">     4</i>
     <i type="logical" name="MIXFIRST"> F  </i>
     <i type="int" name="MAXMIX">   -45</i>
     <i name="WC">    100.00000000</i>
     <i type="int" name="INIMIX">     1</i>
     <i type="int" name="MIXPRE">     1</i>
     <i type="int" name="MREMOVE">     5</i>
    </separator>
   </separator>
   <separator name="electronic dipolcorrection" >
    <i type="logical" name="LDIPOL"> F  </i>
    <i type="logical" name="LMONO"> F  </i>
    <i type="int" name="IDIPOL">     0</i>
    <i name="EPSILON">      1.00000000</i>
    <v name="DIPOL">   -100.00000000   -100.00000000   -100.00000000</v>
    <i name="EFIELD">      0.00000000</i>
   </separator>
  </separator>
  <separator name="grids" >
   <i type="int" name="NGX">    18</i>
   <i type="int" name="NGY">    18</i>
   <i type="int" name="NGZ">    90</i>
   <i type="int" name="NGXF">    36</i>
   <i type="int" name="NGYF">    36</i>
   <i type="int" name="NGZF">   180</i>
   <i type="logical" name="ADDGRID"> F  </i>
  </separator>
  <separator name="ionic" >
   <i type="int" name="NSW">     0</i>
   <i type="int" name="IBRION">    -1</i>
   <i type="int" name="MDALGO">     0</i>
   <i type="int" name="ISIF">     3</i>
   <i name="PSTRESS">      0.00000000</i>
   <i name="EDIFFG">     -0.00001000</i>
   <i type="int" name="NFREE">     0</i>
   <i name="POTIM">      0.50000000</i>
   <i name="SMASS">     -3.00000000</i>
   <i name="SCALEE">      1.00000000</i>
  </separator>
  <separator name="ionic md" >
   <i name="TEBEG">      0.00010000</i>
   <i name="TEEND">      0.00010000</i>
   <i type="int" name="NBLOCK">     1</i>
   <i type="int" name="KBLOCK">     1</i>
   <i type="int" name="NPACO">   256</i>
   <i name="APACO">     10.00000000</i>
  </separator>
  <separator name="symmetry" >
   <i type="int" name="ISYM">     3</i>
   <i name="SYMPREC">      0.00001000</i>
  </separator>
  <separator name="dos" >
   <i type="int" name="LORBIT">     0</i>
   <v name="RWIGS">     -1.00000000</v>
   <i type="int" name="NEDOS">   301</i>
   <i name="EMIN">     10.00000000</i>
   <i name="EMAX">    -10.00000000</i>
   <i name="EFERMI">      0.00000000</i>
  </separator>
  <separator name="writing" >
   <i type="int" name="NWRITE">     2</i>
   <i type="logical" name="LWAVE"> F  </i>
   <i type="logical" name="LDOWNSAMPLE"> F  </i>
   <i type="logical" name="LCHARG"> F  </i>
   <i type="logical" name="LPARD"> F  </i>
   <i type="logical" name="LVTOT"> F  </i>
   <i type="logical" name="LVHAR"> F  </i>
   <i type="logical" name="LELF"> F  </i>
   <i type="logical" name="LOPTICS"> F  </i>
   <v name="STM">      0.00000000      0.00000000      0.00000000      0.00000000      0.00000000      0.00000000      0.00000000</v>
  </separator>
  <separator name="performance" >
   <i type="int" name="NPAR">     2</i>
   <i type="int" name="NSIM">     4</i>
   <i type="int" name="NBLK">    -1</i>
   <i type="logical" name="LPLANE"> T  </i>
   <i type="logical" name="LSCALAPACK"> T  </i>
   <i type="logical" name="LSCAAWARE"> F  </i>
   <i type="logical" name="LSCALU"> F  </i>
   <i type="logical" name="LASYNC"> F  </i>
   <i type="logical" name="LORBITALREAL"> F  </i>
  </separator>
  <separator name="miscellaneous" >
   <i type="int" name="IDIOT">     3</i>
   <i type="int" name="PHON_NSTRUCT">    -1</i>
   <i type="logical" name="LMUSIC"> F  </i>
   <v name="POMASS">     12.01100000</v>
   <v name="DARWINR">      0.00000000</v>
   <v name="DARWINV">      1.00000000</v>
   <i type="logical" name="LCORR"> T  </i>
  </separator>
  <i type="logical" name="GGA_COMPAT"> T  </i>
  <i type="logical" name="LBERRY"> F  </i>
  <i type="int" name="ICORELEVEL">     0</i>
  <i type="logical" name="LDAU"> F  </i>
  <i type="int" name="I_CONSTRAINED_M">     0</i>
  <separator name="electronic exchange-correlation" >
   <i type="string" name="GGA">--</i>
   <i type="int" name="VOSKOWN">     0</i>
   <i type="logical" name="LHFCALC"> T  </i>
   <i type="string" name="PRECFOCK">normal</i>
   <i type="logical" name="LSYMGRAD"> F  </i>
   <i type="logical" name="LHFONE"> F  </i>
   <i type="logical" name="LRHFCALC"> F  </i>
   <i type="logical" name="LTHOMAS"> F  </i>
   <i type="logical" name="LMODELHF"> F  </i>
   <i type="logical" name="LFOCKACE"> T  </i>
   <i name="ENCUT4O">     -1.00000000</i>
   <i type="int" name="EXXOEP">     0</i>
   <i type="int" name="FOURORBIT">     0</i>
   <i name="AEXX">      0.25000000</i>
   <i name="HFALPHA">     -1.00000000</i>
   <i name="MCALPHA">      0.00000000</i>
   <i name="ALDAX">      0.75000000</i>
   <i name="AGGAX">      0.75000000</i>
   <i name="ALDAC">      1.00000000</i>
   <i name="AGGAC">      1.00000000</i>
   <i type="int" name="NKREDX">     1</i>
   <i type="int" name="NKREDY">     1</i>
   <i type="int" name="NKREDZ">     1</i>
   <i type="logical" name="SHIFTRED"> F  </i>
   <i type="logical" name="ODDONLY"> F  </i>
   <i type="logical" name="EVENONLY"> F  </i>
   <i type="int" name="LMAXFOCK">     4</i>
   <i type="int" name="NMAXFOCKAE">     1</i>
   <i type="logical" name="LFOCKAEDFT"> F  </i>
   <i name="HFSCREEN">      0.20000000</i>
   <i name="HFSCREENC">      0.20000000</i>
   <i type="int" name="NBANDSGWLOW">     1</i>
  </separator>
  <separator name="vdW DFT" >
   <i type="logical" name="LUSE_VDW"> F  </i>
   <i name="Zab_VDW">     -0.84910000</i>
   <i name="PARAM1">      0.12340000</i>
   <i name="PARAM2">      1.00000000</i>
   <i name="PARAM3">      0.00000000</i>
  </separator>
  <separator name="model GW" >
   <i type="int" name="MODEL_GW">     0</i>
   <i name="MODEL_EPS0">     18.99198397</i>
   <i name="MODEL_ALPHA">      1.00000000</i>
  </separator>
  <separator name="linear response parameters" >
   <i type="logical" name="LEPSILON"> F  </i>
   <i type="logical" name="LRPA"> F  </i>
   <i type="logical" name="LNABLA"> F  </i>
   <i type="logical" name="LVEL"> F  </i>
   <i name="CSHIFT">      0.10000000</i>
   <i name="OMEGAMAX">     -1.00000000</i>
   <i name="DEG_THRESHOLD">      0.00200000</i>
   <i name="RTIME">     -0.10000000</i>
   <i name="WPLASMAI">      0.00000000</i>
   <v name="DFIELD">      0.00000000      0.00000000      0.00000000</v>
   <v name="WPLASMA">      0.00000000      0.00000000      0.00000000      0.00000000      0.00000000      0.00000000      0.00000000      0.00000000      0.00000000</v>
  </separator>
  <separator name="orbital magnetization" >
   <i type="logical" name="NUCIND"> F  </i>
   <v name="MAGPOS">      0.00000000      0.00000000      0.00000000</v>
   <i type="logical" name="LNICSALL"> T  </i>
   <i type="logical" name="ORBITALMAG"> F  </i>
   <i type="logical" name="LMAGBLOCH"> F  </i>
   <i type="logical" name="LCHIMAG"> F  </i>
   <i type="logical" name="LGAUGE"> T  </i>
   <i type="int" name="MAGATOM">     0</i>
   <v name="MAGDIPOL">      0.00000000      0.00000000      0.00000000</v>
   <v name="AVECCONST">      0.00000000      0.00000000      0.00000000</v>
  </separator>
  <separator name="response functions" >
   <i type="logical" name="LFINITE_TEMPERATURE"> F  </i>
   <i type="logical" name="LADDER"> F  </i>
   <i type="logical" name="LRPAFORCE"> F  </i>
   <i type="logical" name="LFXC"> F  </i>
   <i type="logical" name="LHARTREE"> T  </i>
   <i type="int" name="IBSE">     0</i>
   <v type="int" name="KPOINT">    -1     0     0     0</v>
   <i type="logical" name="LTCTC"> F  </i>
   <i type="logical" name="LTCTE"> F  </i>
   <i type="logical" name="LTETE"> F  </i>
   <i type="logical" name="LTRIPLET"> F  </i>
   <i type="logical" name="LFXCEPS"> F  </i>
   <i type="logical" name="LFXHEG"> F  </i>
   <i type="int" name="NATURALO">     2</i>
   <i type="logical" name="LHOLEGF"> F  </i>
   <i type="logical" name="L2ORDER"> F  </i>
   <i type="logical" name="LDMP1"> F  </i>
   <i type="logical" name="LMP2LT"> F  </i>
   <i type="logical" name="LSMP2LT"> F  </i>
   <i type="logical" name="LGWLF"> F  </i>
   <i name="ENCUTGW">     -2.00000000</i>
   <i name="ENCUTGWSOFT">     -2.00000000</i>
   <i name="ENCUTLF">     -1.00000000</i>
   <i type="logical" name="LESF_SPLINES"> F  </i>
   <i type="int" name="LMAXMP2">    -1</i>
   <i name="SCISSOR">      0.00000000</i>
   <i type="int" name="NOMEGA">     0</i>
   <i type="int" name="NOMEGAR">     0</i>
   <i type="int" name="NBANDSGW">    -1</i>
   <i type="int" name="NBANDSO">    -1</i>
   <i type="int" name="NBANDSV">    -1</i>
   <i type="int" name="NELMGW">     1</i>
   <i type="int" name="NELMHF">     1</i>
   <i type="int" name="DIM">     3</i>
   <i type="int" name="IESPILON">     4</i>
   <i type="int" name="ANTIRES">     0</i>
   <i name="OMEGAMAX">    -30.00000000</i>
   <i name="OMEGAMIN">    -30.00000000</i>
   <i name="OMEGATL">   -200.00000000</i>
   <i type="int" name="OMEGAGRID">     0</i>
   <i name="CSHIFT">     -0.10000000</i>
   <i type="logical" name="LSELFENERGY"> F  </i>
   <i type="logical" name="LSPECTRAL"> F  </i>
   <i type="logical" name="LSPECTRALGW"> F  </i>
   <i type="logical" name="LSINGLES"> F  </i>
   <i type="logical" name="LFERMIGW"> F  </i>
   <i type="logical" name="ODDONLYGW"> F  </i>
   <i type="logical" name="EVENONLYGW"> F  </i>
   <i type="int" name="NKREDLFX">     1</i>
   <i type="int" name="NKREDLFY">     1</i>
   <i type="int" name="NKREDLFZ">     1</i>
   <i type="int" name="MAXMEM">  2800</i>
   <i type="int" name="TELESCOPE">     0</i>
   <i type="int" name="NTAUPAR">    -1</i>
   <i type="int" name="NOMEGAPAR">    -1</i>
   <i name="DAMP_NEWTON">      0.80000001</i>
   <i name="LAMBDA">      1.00000000</i>
  </separator>
  <separator name="External order field" >
   <i name="OFIELD_KAPPA">      0.00000000</i>
   <v name="OFIELD_K">      0.00000000      0.00000000      0.00000000</v>
   <i name="OFIELD_Q6_NEAR">      0.00000000</i>
   <i name="OFIELD_Q6_FAR">      0.00000000</i>
   <i name="OFIELD_A">      0.00000000</i>
  </separator>
  <separator name="optional k-points parameters" >
   <i type="int" name="KPOINTS_OPT_MODE">     1</i>
   <i type="logical" name="LKPOINTS_OPT"> F  </i>
  </separator>
 </parameters>
 <atominfo>
  <atoms>       2 </atoms>
  <types>       1 </types>
  <array name="atoms" >
   <dimension dim="1">ion</dimension>
   <field type="string">element</field>
   <field type="int">atomtype</field>
   <set>
    <rc><c>C </c><c>   1</c></rc>
    <rc><c>C </c><c>   1</c></rc>
   </set>
  </array>
  <array name="atomtypes" >
   <dimension dim="1">type</dimension>
   <field type="int">atomspertype</field>
   <field type="string">element</field>
   <field>mass</field>
   <field>valence</field>
   <field type="string">pseudopotential</field>
   <set>
    <rc><c>   2</c><c>C </c><c>     12.01100000</c><c>      4.00000000</c><c>  PAW_PBE C 08Apr2002                   </c></rc>
   </set>
  </array>
 </atominfo>
 <structure name="initialpos" >
  <crystal>
   <varray name="basis" >
    <v>       2.46813324       0.00000000       0.00000000 </v>
    <v>       1.23406662       2.13746609       0.00000000 </v>
    <v>       0.00000000       0.00000000      12.00000000 </v>
   </varray>
   <i name="volume">     63.30661323 </i>
   <varray name="rec_basis" >
    <v>       0.40516451      -0.23392184       0.00000000 </v>
    <v>       0.00000000       0.46784368       0.00000000 </v>
    <v>       0.00000000       0.00000000       0.08333333 </v>
   </varray>
  </crystal>
  <varray name="positions" >
   <v>       0.00000000       0.00000000       0.50000000 </v>
   <v>       0.33333334       0.33333334       0.50000000 </v>
  </varray>
 </structure>
 <calculation>
  <scstep>
   <time name="total">  145.97  146.38</time>
   <energy>
    <i name="alphaZ">      5.19040345 </i>
    <i name="ewald">    560.32934460 </i>
    <i name="hartreedc">   -817.36208126 </i>
    <i name="XCdc">     21.16652793 </i>
    <i name="pawpsdc">    842.94665884 </i>
    <i name="pawaedc">   -843.86323135 </i>
    <i name="eentropy">     -0.00034827 </i>
    <i name="bandstr">    -98.38417656 </i>
    <i name="atom">    290.80381757 </i>
    <i name="e_fr_energy">    -21.17320812 </i>
    <i name="e_wo_entrp">    -21.17285985 </i>
    <i name="e_0_energy">    -21.17303399 </i>
   </energy>
  </scstep>
  <scstep>
   <time name="total">  146.51  146.73</time>
   <energy>
    <i name="e_fr_energy">    -21.18803556 </i>
    <i name="e_wo_entrp">    -21.18768730 </i>
    <i name="e_0_energy">    -21.18786143 </i>
   </energy>
  </scstep>
  <scstep>
   <time name="total">  146.68  146.76</time>
   <energy>
    <i name="e_fr_energy">    -21.19437172 </i>
    <i name="e_wo_entrp">    -21.19402346 </i>
    <i name="e_0_energy">    -21.19419759 </i>
   </energy>
  </scstep>
  <scstep>
   <time name="total">  145.51  145.69</time>
   <energy>
    <i name="e_fr_energy">    -21.19617250 </i>
    <i name="e_wo_entrp">    -21.19582424 </i>
    <i name="e_0_energy">    -21.19599837 </i>
   </energy>
  </scstep>
  <scstep>
   <time name="total">  145.49  145.88</time>
   <energy>
    <i name="e_fr_energy">    -21.19672467 </i>
    <i name="e_wo_entrp">    -21.19637640 </i>
    <i name="e_0_energy">    -21.19655054 </i>
   </energy>
  </scstep>
  <scstep>
   <time name="total">  145.37  145.76</time>
   <energy>
    <i name="e_fr_energy">    -21.19694503 </i>
    <i name="e_wo_entrp">    -21.19659676 </i>
    <i name="e_0_energy">    -21.19677090 </i>
   </energy>
  </scstep>
  <scstep>
   <time name="total">  145.98  146.35</time>
   <energy>
    <i name="e_fr_energy">    -21.19707394 </i>
    <i name="e_wo_entrp">    -21.19672568 </i>
    <i name="e_0_energy">    -21.19689981 </i>
   </energy>
  </scstep>
  <scstep>
   <time name="total">  147.67  148.19</time>
   <energy>
    <i name="e_fr_energy">    -21.19713108 </i>
    <i name="e_wo_entrp">    -21.19678281 </i>
    <i name="e_0_energy">    -21.19695695 </i>
   </energy>
  </scstep>
  <scstep>
   <time name="total">  145.67  145.84</time>
   <energy>
    <i name="e_fr_energy">    -21.19716646 </i>
    <i name="e_wo_entrp">    -21.19681819 </i>
    <i name="e_0_energy">    -21.19699233 </i>
   </energy>
  </scstep>
  <scstep>
   <time name="total">  146.21  146.37</time>
   <energy>
    <i name="e_fr_energy">    -21.19717754 </i>
    <i name="e_wo_entrp">    -21.19682928 </i>
    <i name="e_0_energy">    -21.19700341 </i>
   </energy>
  </scstep>
  <scstep>
   <time name="total">  146.80  146.87</time>
   <energy>
    <i name="e_fr_energy">    -21.19718380 </i>
    <i name="e_wo_entrp">    -21.19683554 </i>
    <i name="e_0_energy">    -21.19700967 </i>
   </energy>
  </scstep>
  <scstep>
   <time name="total">  146.71  146.88</time>
   <energy>
    <i name="e_fr_energy">    -21.19719485 </i>
    <i name="e_wo_entrp">    -21.19684658 </i>
    <i name="e_0_energy">    -21.19702071 </i>
   </energy>
  </scstep>
  <scstep>
   <time name="total">  146.17  146.40</time>
   <energy>
    <i name="e_fr_energy">    -21.19719343 </i>
    <i name="e_wo_entrp">    -21.19684516 </i>
    <i name="e_0_energy">    -21.19701929 </i>
   </energy>
  </scstep>
  <scstep>
   <time name="total">  292.28  292.92</time>
   <energy>
    <i name="alphaZ">      5.19040345 </i>
    <i name="ewald">    560.32934460 </i>
    <i name="hartreedc">   -816.37138707 </i>
    <i name="XCdc">     21.14019876 </i>
    <i name="pawpsdc">    910.29194468 </i>
    <i name="pawaedc">   -911.17973149 </i>
    <i name="eentropy">     -0.00034827 </i>
    <i name="bandstr">    -99.40954325 </i>
    <i name="atom">    290.80381757 </i>
    <i name="e_fr_energy">    -21.19719244 </i>
    <i name="e_wo_entrp">    -21.19684417 </i>
    <i name="e_0_energy">    -21.19701831 </i>
   </energy>
  </scstep>
  <structure>
   <crystal>
    <varray name="basis" >
     <v>       2.46813324       0.00000000       0.00000000 </v>
     <v>       1.23406662       2.13746609       0.00000000 </v>
     <v>       0.00000000       0.00000000      12.00000000 </v>
    </varray>
    <i name="volume">     63.30661323 </i>
    <varray name="rec_basis" >
     <v>       0.40516451      -0.23392184       0.00000000 </v>
     <v>       0.00000000       0.46784368       0.00000000 </v>
     <v>       0.00000000       0.00000000       0.08333333 </v>
    </varray>
   </crystal>
   <varray name="positions" >
    <v>       0.00000000       0.00000000       0.50000000 </v>
    <v>       0.33333334       0.33333334       0.50000000 </v>
   </varray>
  </structure>
  <varray name="forces" >
   <v>              NaN              NaN              NaN </v>
   <v>              NaN              NaN              NaN </v>
  </varray>
  <varray name="stress" >
   <v>              NaN              NaN              NaN </v>
   <v>              NaN              NaN              NaN </v>
   <v>              NaN              NaN              NaN </v>
  </varray>
  <energy>
   <i name="e_fr_energy">    -21.19719244 </i>
   <i name="e_wo_entrp">    -21.19684417 </i>
   <i name="e_0_energy">    -21.19701831 </i>
  </energy>
  <time name="totalsc"> 2358.43 2362.82</time>
  <eigenvalues>
   <array>
    <dimension dim="1">band</dimension>
    <dimension dim="2">kpoint</dimension>
    <dimension dim="3">spin</dimension>
    <field>eigene</field>
    <field>occ</field>
    <set>
     <set comment="spin 1">
      <set comment="kpoint 1">
       <r>  -23.8773    1.0000 </r>
       <r>  -10.6841    1.0000 </r>
       <r>   -5.8421    1.0000 </r>
       <r>   -5.8417    1.0000 </r>
       <r>    1.6403    0.0000 </r>
       <r>    2.7703    0.0000 </r>
       <r>    3.5781    0.0000 </r>
       <r>    7.4059    0.0000 </r>
      </set>
      <set comment="kpoint 2">
       <r>  -23.7973    1.0000 </r>
       <r>  -10.5867    1.0000 </r>
       <r>   -6.1634    1.0000 </r>
       <r>   -6.0081    1.0000 </r>
       <r>    1.7402    0.0000 </r>
       <r>    2.8701    0.0000 </r>
       <r>    3.6780    0.0000 </r>
       <r>    7.4295    0.0000 </r>
      </set>
      <set comment="kpoint 3">
       <r>  -23.5593    1.0000 </r>
       <r>  -10.2950    1.0000 </r>
       <r>   -7.0498    1.0000 </r>
       <r>   -6.4520    1.0000 </r>
       <r>    2.0402    0.0000 </r>
       <r>    3.1692    0.0000 </r>
       <r>    3.9779    0.0000 </r>
       <r>    7.4386    0.0000 </r>
      </set>
      <set comment="kpoint 4">
       <r>  -23.1638    1.0000 </r>
       <r>   -9.8115    1.0000 </r>
       <r>   -8.3288    1.0000 </r>
       <r>   -7.0534    1.0000 </r>
       <r>    2.5400    0.0000 </r>
       <r>    3.6664    0.0000 </r>
       <r>    4.4777    0.0000 </r>
       <r>    7.3453    0.0000 </r>
      </set>
      <set comment="kpoint 5">
       <r>  -22.6127    1.0000 </r>
       <r>   -9.8311    1.0000 </r>
       <r>   -9.1412    1.0000 </r>
       <r>   -7.6962    1.0000 </r>
       <r>    3.2395    0.0000 </r>
       <r>    4.3572    0.0000 </r>
       <r>    5.1767    0.0000 </r>
       <r>    7.3340    0.0000 </r>
      </set>
      <set comment="kpoint 6">
       <r>  -21.9095    1.0000 </r>
       <r>  -11.4296    1.0000 </r>
       <r>   -8.2969    1.0000 </r>
       <r>   -8.2948    1.0000 </r>
       <r>    4.1375    0.0000 </r>
       <r>    5.1580    0.0000 </r>
       <r>    5.7511    0.0000 </r>
       <r>    6.0822    0.0000 </r>
      </set>
      <set comment="kpoint 7">
       <r>  -21.0598    1.0000 </r>
       <r>  -13.0377    1.0000 </r>
       <r>   -8.8026    1.0000 </r>
       <r>   -7.2965    1.0000 </r>
       <r>    3.8737    0.0000 </r>
       <r>    5.2314    0.0000 </r>
       <r>    6.3849    0.0000 </r>
       <r>    6.6475    0.0000 </r>
      </set>
      <set comment="kpoint 8">
       <r>  -20.0753    1.0000 </r>
       <r>  -14.5926    1.0000 </r>
       <r>   -9.1814    1.0000 </r>
       <r>   -6.2072    1.0000 </r>
       <r>    2.2178    0.0000 </r>
       <r>    6.4070    0.0000 </r>
       <r>    6.5895    0.0000 </r>
       <r>    7.6553    0.0000 </r>
      </set>
      <set comment="kpoint 9">
       <r>  -18.9949    1.0000 </r>
       <r>  -16.0259    1.0000 </r>
       <r>   -9.4150    1.0000 </r>
       <r>   -5.1985    1.0000 </r>
       <r>    0.8470    0.0000 </r>
       <r>    6.3452    0.0000 </r>
       <r>    8.0152    0.0000 </r>
       <r>    9.1167    0.0000 </r>
      </set>
      <set comment="kpoint 10">
       <r>  -18.2080    1.0000 </r>
       <r>  -16.9321    1.0000 </r>
       <r>   -9.4938    1.0000 </r>
       <r>   -4.7232    1.0000 </r>
       <r>    0.2478    0.0000 </r>
       <r>    6.3060    0.0000 </r>
       <r>    9.6150    0.0000 </r>
       <r>    9.7412    0.0000 </r>
      </set>
      <set comment="kpoint 11">
       <r>  -23.6386    1.0000 </r>
       <r>  -10.3921    1.0000 </r>
       <r>   -6.7397    1.0000 </r>
       <r>   -6.3411    1.0000 </r>
       <r>    1.9402    0.0000 </r>
       <r>    3.0695    0.0000 </r>
       <r>    3.8780    0.0000 </r>
       <r>    7.5215    0.0000 </r>
      </set>
      <set comment="kpoint 12">
       <r>  -23.3218    1.0000 </r>
       <r>  -10.0044    1.0000 </r>
       <r>   -7.7673    1.0000 </r>
       <r>   -6.9201    1.0000 </r>
       <r>    2.3402    0.0000 </r>
       <r>    3.4678    0.0000 </r>
       <r>    4.2780    0.0000 </r>
       <r>    7.6124    0.0000 </r>
      </set>
      <set comment="kpoint 13">
       <r>  -22.8485    1.0000 </r>
       <r>   -9.4271    1.0000 </r>
       <r>   -9.1125    1.0000 </r>
       <r>   -7.5893    1.0000 </r>
       <r>    2.9400    0.0000 </r>
       <r>    4.0628    0.0000 </r>
       <r>    4.8779    0.0000 </r>
       <r>    7.5453    0.0000 </r>
      </set>
      <set comment="kpoint 14">
       <r>  -22.2214    1.0000 </r>
       <r>  -10.6337    1.0000 </r>
       <r>   -8.6674    1.0000 </r>
       <r>   -8.2414    1.0000 </r>
       <r>    3.7390    0.0000 </r>
       <r>    4.8426    0.0000 </r>
       <r>    5.6765    0.0000 </r>
       <r>    6.4301    0.0000 </r>
      </set>
      <set comment="kpoint 15">
       <r>  -21.4447    1.0000 </r>
       <r>  -12.2200    1.0000 </r>
       <r>   -8.8125    1.0000 </r>
       <r>   -7.7410    1.0000 </r>
       <r>    4.6695    0.0000 </r>
       <r>    4.7357    0.0000 </r>
       <r>    5.8992    0.0000 </r>
       <r>    6.8746    0.0000 </r>
      </set>
      <set comment="kpoint 16">
       <r>  -20.5265    1.0000 </r>
       <r>  -13.7928    1.0000 </r>
       <r>   -9.2646    1.0000 </r>
       <r>   -6.6851    1.0000 </r>
       <r>    2.9946    0.0000 </r>
       <r>    5.9260    0.0000 </r>
       <r>    6.9043    0.0000 </r>
       <r>    7.0579    0.0000 </r>
      </set>
      <set comment="kpoint 17">
       <r>  -19.4864    1.0000 </r>
       <r>  -15.2892    1.0000 </r>
       <r>   -9.5759    1.0000 </r>
       <r>   -5.5991    1.0000 </r>
       <r>    1.4520    0.0000 </r>
       <r>    6.7377    0.0000 </r>
       <r>    7.3308    0.0000 </r>
       <r>    8.4225    0.0000 </r>
      </set>
      <set comment="kpoint 18">
       <r>  -18.4283    1.0000 </r>
       <r>  -16.5812    1.0000 </r>
       <r>   -9.7342    1.0000 </r>
       <r>   -4.7734    1.0000 </r>
       <r>    0.3878    0.0000 </r>
       <r>    6.6654    0.0000 </r>
       <r>    8.8943    0.0000 </r>
       <r>    9.9547    0.0000 </r>
      </set>
      <set comment="kpoint 19">
       <r>  -22.9272    1.0000 </r>
       <r>   -9.5227    1.0000 </r>
       <r>   -8.7555    1.0000 </r>
       <r>   -7.6741    1.0000 </r>
       <r>    2.8403    0.0000 </r>
       <r>    3.9644    0.0000 </r>
       <r>    4.7785    0.0000 </r>
       <r>    8.2449    0.0000 </r>
      </set>
      <set comment="kpoint 20">
       <r>  -22.3778    1.0000 </r>
       <r>  -10.0002    1.0000 </r>
       <r>   -8.8547    1.0000 </r>
       <r>   -8.4745    1.0000 </r>
       <r>    3.5399    0.0000 </r>
       <r>    4.6558    0.0000 </r>
       <r>    5.4787    0.0000 </r>
       <r>    6.8708    0.0000 </r>
      </set>
      <set comment="kpoint 21">
       <r>  -21.6770    1.0000 </r>
       <r>  -11.4348    1.0000 </r>
       <r>   -9.1731    1.0000 </r>
       <r>   -8.0107    1.0000 </r>
       <r>    4.4380    0.0000 </r>
       <r>    5.2565    0.0000 </r>
       <r>    5.6118    0.0000 </r>
       <r>    6.3773    0.0000 </r>
      </set>
      <set comment="kpoint 22">
       <r>  -20.8310    1.0000 </r>
       <r>  -12.9476    1.0000 </r>
       <r>   -9.7304    1.0000 </r>
       <r>   -7.0131    1.0000 </r>
       <r>    3.6806    0.0000 </r>
       <r>    5.5327    0.0000 </r>
       <r>    6.6406    0.0000 </r>
       <r>    7.7316    0.0000 </r>
      </set>
      <set comment="kpoint 23">
       <r>  -19.8519    1.0000 </r>
       <r>  -14.4472    1.0000 </r>
       <r>  -10.1350    1.0000 </r>
       <r>   -5.9189    1.0000 </r>
       <r>    2.0920    0.0000 </r>
       <r>    6.8195    0.0000 </r>
       <r>    7.7854    0.0000 </r>
       <r>    7.8998    0.0000 </r>
      </set>
      <set comment="kpoint 24">
       <r>  -18.7794    1.0000 </r>
       <r>  -15.8476    1.0000 </r>
       <r>  -10.3803    1.0000 </r>
       <r>   -4.8925    1.0000 </r>
       <r>    0.7488    0.0000 </r>
       <r>    7.6616    0.0000 </r>
       <r>    8.3077    0.0000 </r>
       <r>    9.3167    0.0000 </r>
      </set>
      <set comment="kpoint 25">
       <r>  -17.9999    1.0000 </r>
       <r>  -16.7388    1.0000 </r>
       <r>  -10.4625    1.0000 </r>
       <r>   -4.3986    1.0000 </r>
       <r>    0.1458    0.0000 </r>
       <r>    7.6255    0.0000 </r>
       <r>    9.8873    0.0000 </r>
       <r>   10.0226    0.0000 </r>
      </set>
      <set comment="kpoint 26">
       <r>  -21.7548    1.0000 </r>
       <r>  -11.0160    1.0000 </r>
       <r>   -9.4644    1.0000 </r>
       <r>   -8.1011    1.0000 </r>
       <r>    4.3386    0.0000 </r>
       <r>    5.4422    0.0000 </r>
       <r>    5.5549    0.0000 </r>
       <r>    6.2789    0.0000 </r>
      </set>
      <set comment="kpoint 27">
       <r>  -20.9842    1.0000 </r>
       <r>  -12.2328    1.0000 </r>
       <r>  -10.2947    1.0000 </r>
       <r>   -7.1799    1.0000 </r>
       <r>    4.1101    0.0000 </r>
       <r>    5.3346    0.0000 </r>
       <r>    6.4165    0.0000 </r>
       <r>    7.2768    0.0000 </r>
      </set>
      <set comment="kpoint 28">
       <r>  -20.0753    1.0000 </r>
       <r>  -13.5990    1.0000 </r>
       <r>  -10.8805    1.0000 </r>
       <r>   -6.1229    1.0000 </r>
       <r>    2.6093    0.0000 </r>
       <r>    6.5250    0.0000 </r>
       <r>    7.5643    0.0000 </r>
       <r>    8.5648    0.0000 </r>
      </set>
      <set comment="kpoint 29">
       <r>  -19.0488    1.0000 </r>
       <r>  -14.9853    1.0000 </r>
       <r>  -11.2518    1.0000 </r>
       <r>   -5.0165    1.0000 </r>
       <r>    1.1779    0.0000 </r>
       <r>    7.9036    0.0000 </r>
       <r>    8.8439    0.0000 </r>
       <r>    9.1190    0.0000 </r>
      </set>
      <set comment="kpoint 30">
       <r>  -18.0080    1.0000 </r>
       <r>  -16.2201    1.0000 </r>
       <r>  -11.4331    1.0000 </r>
       <r>   -4.1386    1.0000 </r>
       <r>    0.1277    0.0000 </r>
       <r>    9.0369    0.0000 </r>
       <r>    9.4635    0.0000 </r>
       <r>   10.0584    0.0000 </r>
      </set>
      <set comment="kpoint 31">
       <r>  -20.1503    1.0000 </r>
       <r>  -13.1204    1.0000 </r>
       <r>  -11.3371    1.0000 </r>
       <r>   -6.1928    1.0000 </r>
       <r>    2.8145    0.0000 </r>
       <r>    6.4260    0.0000 </r>
       <r>    7.4452    0.0000 </r>
       <r>    8.3718    0.0000 </r>
      </set>
      <set comment="kpoint 32">
       <r>  -19.1895    1.0000 </r>
       <r>  -14.2119    1.0000 </r>
       <r>  -12.0559    1.0000 </r>
       <r>   -5.0918    1.0000 </r>
       <r>    1.4746    0.0000 </r>
       <r>    7.7065    0.0000 </r>
       <r>    8.5770    0.0000 </r>
       <r>    9.6775    0.0000 </r>
      </set>
      <set comment="kpoint 33">
       <r>  -18.1423    1.0000 </r>
       <r>  -15.4140    1.0000 </r>
       <r>  -12.4344    1.0000 </r>
       <r>   -4.0053    1.0000 </r>
       <r>    0.2335    0.0000 </r>
       <r>    9.1630    0.0000 </r>
       <r>    9.5390    0.0000 </r>
       <r>   10.6695    0.0000 </r>
      </set>
      <set comment="kpoint 34">
       <r>  -17.3771    1.0000 </r>
       <r>  -16.2439    1.0000 </r>
       <r>  -12.5513    1.0000 </r>
       <r>   -3.4252    1.0000 </r>
       <r>   -0.4006    0.0000 </r>
       <r>    9.8441    0.0000 </r>
       <r>   10.6164    0.0000 </r>
       <r>   10.6726    0.0000 </r>
      </set>
      <set comment="kpoint 35">
       <r>  -18.1980    1.0000 </r>
       <r>  -14.9170    1.0000 </r>
       <r>  -12.9942    1.0000 </r>
       <r>   -3.9674    1.0000 </r>
       <r>    0.2973    0.0000 </r>
       <r>    9.0638    0.0000 </r>
       <r>    9.3321    0.0000 </r>
       <r>   11.0533    0.0000 </r>
      </set>
      <set comment="kpoint 36">
       <r>  -17.1910    1.0000 </r>
       <r>  -15.7975    1.0000 </r>
       <r>  -13.4604    1.0000 </r>
       <r>   -2.9257    1.0000 </r>
       <r>   -0.7670    0.0000 </r>
       <r>    9.4440    0.0000 </r>
       <r>   10.5514    0.0000 </r>
       <r>   11.9317    0.0000 </r>
      </set>
      <set comment="kpoint 37">
       <r>  -16.3450    1.0000 </r>
       <r>  -16.3450    1.0000 </r>
       <r>  -13.9172    1.0000 </r>
       <r>   -1.8294    0.5000 </r>
       <r>   -1.8294    0.5000 </r>
       <r>    9.2936    0.0000 </r>
       <r>   11.7590    0.0000 </r>
       <r>   11.7590    0.0000 </r>
      </set>
      <set comment="kpoint 38">
       <r>  -23.8767    1.0000 </r>
       <r>  -10.6841    1.0000 </r>
       <r>   -5.8419    1.0000 </r>
       <r>   -5.8419    1.0000 </r>
       <r>    1.6403    0.0000 </r>
       <r>    2.7703    0.0000 </r>
       <r>    3.5781    0.0000 </r>
       <r>    7.4057    0.0000 </r>
      </set>
      <set comment="kpoint 39">
       <r>  -23.8738    1.0000 </r>
       <r>  -10.6805    1.0000 </r>
       <r>   -5.8540    1.0000 </r>
       <r>   -5.8482    1.0000 </r>
       <r>    1.6439    0.0000 </r>
       <r>    2.7740    0.0000 </r>
       <r>    3.5818    0.0000 </r>
       <r>    7.4068    0.0000 </r>
      </set>
      <set comment="kpoint 40">
       <r>  -23.8651    1.0000 </r>
       <r>  -10.6698    1.0000 </r>
       <r>   -5.8900    1.0000 </r>
       <r>   -5.8669    1.0000 </r>
       <r>    1.6549    0.0000 </r>
       <r>    2.7850    0.0000 </r>
       <r>    3.5928    0.0000 </r>
       <r>    7.4100    0.0000 </r>
      </set>
      <set comment="kpoint 41">
       <r>  -23.8505    1.0000 </r>
       <r>  -10.6519    1.0000 </r>
       <r>   -5.9496    1.0000 </r>
       <r>   -5.8979    1.0000 </r>
       <r>    1.6732    0.0000 </r>
       <r>    2.8033    0.0000 </r>
       <r>    3.6111    0.0000 </r>
       <r>    7.4150    0.0000 </r>
      </set>
      <set comment="kpoint 42">
       <r>  -23.8301    1.0000 </r>
       <r>  -10.6269    1.0000 </r>
       <r>   -6.0323    1.0000 </r>
       <r>   -5.9407    1.0000 </r>
       <r>    1.6989    0.0000 </r>
       <r>    2.8289    0.0000 </r>
       <r>    3.6367    0.0000 </r>
       <r>    7.4212    0.0000 </r>
      </set>
      <set comment="kpoint 43">
       <r>  -23.8039    1.0000 </r>
       <r>  -10.5948    1.0000 </r>
       <r>   -6.1372    1.0000 </r>
       <r>   -5.9947    1.0000 </r>
       <r>    1.7319    0.0000 </r>
       <r>    2.8618    0.0000 </r>
       <r>    3.6697    0.0000 </r>
       <r>    7.4280    0.0000 </r>
      </set>
      <set comment="kpoint 44">
       <r>  -23.7719    1.0000 </r>
       <r>  -10.5555    1.0000 </r>
       <r>   -6.2633    1.0000 </r>
       <r>   -6.0592    1.0000 </r>
       <r>    1.7722    0.0000 </r>
       <r>    2.9020    0.0000 </r>
       <r>    3.7100    0.0000 </r>
       <r>    7.4344    0.0000 </r>
      </set>
      <set comment="kpoint 45">
       <r>  -23.7340    1.0000 </r>
       <r>  -10.5091    1.0000 </r>
       <r>   -6.4095    1.0000 </r>
       <r>   -6.1335    1.0000 </r>
       <r>    1.8199    0.0000 </r>
       <r>    2.9496    0.0000 </r>
       <r>    3.7577    0.0000 </r>
       <r>    7.4397    0.0000 </r>
      </set>
      <set comment="kpoint 46">
       <r>  -23.6904    1.0000 </r>
       <r>  -10.4556    1.0000 </r>
       <r>   -6.5747    1.0000 </r>
       <r>   -6.2167    1.0000 </r>
       <r>    1.8749    0.0000 </r>
       <r>    3.0044    0.0000 </r>
       <r>    3.8126    0.0000 </r>
       <r>    7.4431    0.0000 </r>
      </set>
      <set comment="kpoint 47">
       <r>  -23.6409    1.0000 </r>
       <r>  -10.3950    1.0000 </r>
       <r>   -6.7574    1.0000 </r>
       <r>   -6.3080    1.0000 </r>
       <r>    1.9372    0.0000 </r>
       <r>    3.0666    0.0000 </r>
       <r>    3.8750    0.0000 </r>
       <r>    7.4437    0.0000 </r>
      </set>
      <set comment="kpoint 48">
       <r>  -23.5857    1.0000 </r>
       <r>  -10.3273    1.0000 </r>
       <r>   -6.9564    1.0000 </r>
       <r>   -6.4063    1.0000 </r>
       <r>    2.0068    0.0000 </r>
       <r>    3.1360    0.0000 </r>
       <r>    3.9446    0.0000 </r>
       <r>    7.4410    0.0000 </r>
      </set>
      <set comment="kpoint 49">
       <r>  -23.5246    1.0000 </r>
       <r>  -10.2526    1.0000 </r>
       <r>   -7.1704    1.0000 </r>
       <r>   -6.5108    1.0000 </r>
       <r>    2.0838    0.0000 </r>
       <r>    3.2127    0.0000 </r>
       <r>    4.0216    0.0000 </r>
       <r>    7.4344    0.0000 </r>
      </set>
      <set comment="kpoint 50">
       <r>  -23.4579    1.0000 </r>
       <r>  -10.1709    1.0000 </r>
       <r>   -7.3981    1.0000 </r>
       <r>   -6.6205    1.0000 </r>
       <r>    2.1682    0.0000 </r>
       <r>    3.2966    0.0000 </r>
       <r>    4.1059    0.0000 </r>
       <r>    7.4234    0.0000 </r>
      </set>
      <set comment="kpoint 51">
       <r>  -23.3853    1.0000 </r>
       <r>  -10.0821    1.0000 </r>
       <r>   -7.6380    1.0000 </r>
       <r>   -6.7345    1.0000 </r>
       <r>    2.2598    0.0000 </r>
       <r>    3.3879    0.0000 </r>
       <r>    4.1976    0.0000 </r>
       <r>    7.4080    0.0000 </r>
      </set>
      <set comment="kpoint 52">
       <r>  -23.3070    1.0000 </r>
       <r>   -9.9864    1.0000 </r>
       <r>   -7.8890    1.0000 </r>
       <r>   -6.8520    1.0000 </r>
       <r>    2.3588    0.0000 </r>
       <r>    3.4863    0.0000 </r>
       <r>    4.2965    0.0000 </r>
       <r>    7.3881    0.0000 </r>
      </set>
      <set comment="kpoint 53">
       <r>  -23.2230    1.0000 </r>
       <r>   -9.8837    1.0000 </r>
       <r>   -8.1500    1.0000 </r>
       <r>   -6.9722    1.0000 </r>
       <r>    2.4651    0.0000 </r>
       <r>    3.5919    0.0000 </r>
       <r>    4.4028    0.0000 </r>
       <r>    7.3638    0.0000 </r>
      </set>
      <set comment="kpoint 54">
       <r>  -23.1332    1.0000 </r>
       <r>   -9.7742    1.0000 </r>
       <r>   -8.4196    1.0000 </r>
       <r>   -7.0943    1.0000 </r>
       <r>    2.5787    0.0000 </r>
       <r>    3.7047    0.0000 </r>
       <r>    4.5164    0.0000 </r>
       <r>    7.3354    0.0000 </r>
      </set>
      <set comment="kpoint 55">
       <r>  -23.0377    1.0000 </r>
       <r>   -9.6578    1.0000 </r>
       <r>   -8.6970    1.0000 </r>
       <r>   -7.2175    1.0000 </r>
       <r>    2.6997    0.0000 </r>
       <r>    3.8247    0.0000 </r>
       <r>    4.6373    0.0000 </r>
       <r>    7.3031    0.0000 </r>
      </set>
      <set comment="kpoint 56">
       <r>  -22.9366    1.0000 </r>
       <r>   -9.5346    1.0000 </r>
       <r>   -8.9811    1.0000 </r>
       <r>   -7.3413    1.0000 </r>
       <r>    2.8279    0.0000 </r>
       <r>    3.9517    0.0000 </r>
       <r>    4.7655    0.0000 </r>
       <r>    7.2674    0.0000 </r>
      </set>
      <set comment="kpoint 57">
       <r>  -22.8298    1.0000 </r>
       <r>   -9.4047    1.0000 </r>
       <r>   -9.2709    1.0000 </r>
       <r>   -7.4649    1.0000 </r>
       <r>    2.9635    0.0000 </r>
       <r>    4.0857    0.0000 </r>
       <r>    4.9010    0.0000 </r>
       <r>    7.2288    0.0000 </r>
      </set>
      <set comment="kpoint 58">
       <r>  -22.7174    1.0000 </r>
       <r>   -9.5656    1.0000 </r>
       <r>   -9.2681    1.0000 </r>
       <r>   -7.5879    1.0000 </r>
       <r>    3.1064    0.0000 </r>
       <r>    4.2265    0.0000 </r>
       <r>    5.0437    0.0000 </r>
       <r>    7.1877    0.0000 </r>
      </set>
      <set comment="kpoint 59">
       <r>  -22.5993    1.0000 </r>
       <r>   -9.8644    1.0000 </r>
       <r>   -9.1250    1.0000 </r>
       <r>   -7.7096    1.0000 </r>
       <r>    3.2565    0.0000 </r>
       <r>    4.3739    0.0000 </r>
       <r>    5.1938    0.0000 </r>
       <r>    7.3005    0.0000 </r>
      </set>
      <set comment="kpoint 60">
       <r>  -22.4757    1.0000 </r>
       <r>  -10.1666    1.0000 </r>
       <r>   -8.9753    1.0000 </r>
       <r>   -7.8297    1.0000 </r>
       <r>    3.4140    0.0000 </r>
       <r>    4.5275    0.0000 </r>
       <r>    5.3510    0.0000 </r>
       <r>    6.9939    0.0000 </r>
      </set>
      <set comment="kpoint 61">
       <r>  -22.3465    1.0000 </r>
       <r>  -10.4713    1.0000 </r>
       <r>   -8.8193    1.0000 </r>
       <r>   -7.9477    1.0000 </r>
       <r>    3.5787    0.0000 </r>
       <r>    4.6865    0.0000 </r>
       <r>    5.5155    0.0000 </r>
       <r>    6.6820    0.0000 </r>
      </set>
      <set comment="kpoint 62">
       <r>  -22.2118    1.0000 </r>
       <r>  -10.7781    1.0000 </r>
       <r>   -8.6571    1.0000 </r>
       <r>   -8.0631    1.0000 </r>
       <r>    3.7506    0.0000 </r>
       <r>    4.8490    0.0000 </r>
       <r>    5.6873    0.0000 </r>
       <r>    6.3683    0.0000 </r>
      </set>
      <set comment="kpoint 63">
       <r>  -22.0716    1.0000 </r>
       <r>  -11.0863    1.0000 </r>
       <r>   -8.4888    1.0000 </r>
       <r>   -8.1756    1.0000 </r>
       <r>    3.9298    0.0000 </r>
       <r>    5.0098    0.0000 </r>
       <r>    5.8673    0.0000 </r>
       <r>    6.0593    0.0000 </r>
      </set>
      <set comment="kpoint 64">
       <r>  -21.9260    1.0000 </r>
       <r>  -11.3952    1.0000 </r>
       <r>   -8.3145    1.0000 </r>
       <r>   -8.2850    1.0000 </r>
       <r>    4.1163    0.0000 </r>
       <r>    5.1472    0.0000 </r>
       <r>    5.7777    0.0000 </r>
       <r>    6.0596    0.0000 </r>
      </set>
      <set comment="kpoint 65">
       <r>  -21.7750    1.0000 </r>
       <r>  -11.7046    1.0000 </r>
       <r>   -8.3908    1.0000 </r>
       <r>   -8.1346    1.0000 </r>
       <r>    4.3100    0.0000 </r>
       <r>    5.1539    0.0000 </r>
       <r>    5.6317    0.0000 </r>
       <r>    6.3497    0.0000 </r>
      </set>
      <set comment="kpoint 66">
       <r>  -21.6187    1.0000 </r>
       <r>  -12.0138    1.0000 </r>
       <r>   -8.4928    1.0000 </r>
       <r>   -7.9493    1.0000 </r>
       <r>    4.5108    0.0000 </r>
       <r>    4.9314    0.0000 </r>
       <r>    5.7205    0.0000 </r>
       <r>    6.6279    0.0000 </r>
      </set>
      <set comment="kpoint 67">
       <r>  -21.4570    1.0000 </r>
       <r>  -12.3224    1.0000 </r>
       <r>   -8.5908    1.0000 </r>
       <r>   -7.7588    1.0000 </r>
       <r>    4.6288    0.0000 </r>
       <r>    4.7188    0.0000 </r>
       <r>    5.8960    0.0000 </r>
       <r>    6.6895    0.0000 </r>
      </set>
      <set comment="kpoint 68">
       <r>  -21.2902    1.0000 </r>
       <r>  -12.6299    1.0000 </r>
       <r>   -8.6846    1.0000 </r>
       <r>   -7.5635    1.0000 </r>
       <r>    4.3082    0.0000 </r>
       <r>    4.9338    0.0000 </r>
       <r>    6.0970    0.0000 </r>
       <r>    6.6852    0.0000 </r>
      </set>
      <set comment="kpoint 69">
       <r>  -21.1182    1.0000 </r>
       <r>  -12.9360    1.0000 </r>
       <r>   -8.7739    1.0000 </r>
       <r>   -7.3639    1.0000 </r>
       <r>    3.9825    0.0000 </r>
       <r>    5.1559    0.0000 </r>
       <r>    6.3112    0.0000 </r>
       <r>    6.6582    0.0000 </r>
      </set>
      <set comment="kpoint 70">
       <r>  -20.9412    1.0000 </r>
       <r>  -13.2403    1.0000 </r>
       <r>   -8.8585    1.0000 </r>
       <r>   -7.1605    1.0000 </r>
       <r>    3.6563    0.0000 </r>
       <r>    5.3848    0.0000 </r>
       <r>    6.5352    0.0000 </r>
       <r>    6.6256    0.0000 </r>
      </set>
      <set comment="kpoint 71">
       <r>  -20.7593    1.0000 </r>
       <r>  -13.5424    1.0000 </r>
       <r>   -8.9384    1.0000 </r>
       <r>   -6.9540    1.0000 </r>
       <r>    3.3318    0.0000 </r>
       <r>    5.6202    0.0000 </r>
       <r>    6.5921    0.0000 </r>
       <r>    6.7677    0.0000 </r>
      </set>
      <set comment="kpoint 72">
       <r>  -20.5726    1.0000 </r>
       <r>  -13.8419    1.0000 </r>
       <r>   -9.0133    1.0000 </r>
       <r>   -6.7450    1.0000 </r>
       <r>    3.0108    0.0000 </r>
       <r>    5.8614    0.0000 </r>
       <r>    6.5604    0.0000 </r>
       <r>    7.0080    0.0000 </r>
      </set>
      <set comment="kpoint 73">
       <r>  -20.3814    1.0000 </r>
       <r>  -14.1384    1.0000 </r>
       <r>   -9.0832    1.0000 </r>
       <r>   -6.5346    1.0000 </r>
       <r>    2.6950    0.0000 </r>
       <r>    6.1054    0.0000 </r>
       <r>    6.5342    0.0000 </r>
       <r>    7.2557    0.0000 </r>
      </set>
      <set comment="kpoint 74">
       <r>  -20.1857    1.0000 </r>
       <r>  -14.4314    1.0000 </r>
       <r>   -9.1478    1.0000 </r>
       <r>   -6.3239    1.0000 </r>
       <r>    2.3859    0.0000 </r>
       <r>    6.3330    0.0000 </r>
       <r>    6.5335    0.0000 </r>
       <r>    7.5106    0.0000 </r>
      </set>
      <set comment="kpoint 75">
       <r>  -19.9860    1.0000 </r>
       <r>  -14.7207    1.0000 </r>
       <r>   -9.2072    1.0000 </r>
       <r>   -6.1143    1.0000 </r>
       <r>    2.0854    0.0000 </r>
       <r>    6.4223    0.0000 </r>
       <r>    6.6802    0.0000 </r>
       <r>    7.7726    0.0000 </r>
      </set>
      <set comment="kpoint 76">
       <r>  -19.7826    1.0000 </r>
       <r>  -15.0055    1.0000 </r>
       <r>   -9.2611    1.0000 </r>
       <r>   -5.9077    1.0000 </r>
       <r>    1.7957    0.0000 </r>
       <r>    6.4135    0.0000 </r>
       <r>    6.9344    0.0000 </r>
       <r>    8.0415    0.0000 </r>
      </set>
      <set comment="kpoint 77">
       <r>  -19.5761    1.0000 </r>
       <r>  -15.2853    1.0000 </r>
       <r>   -9.3096    1.0000 </r>
       <r>   -5.7062    1.0000 </r>
       <r>    1.5191    0.0000 </r>
       <r>    6.3944    0.0000 </r>
       <r>    7.2083    0.0000 </r>
       <r>    8.3171    0.0000 </r>
      </set>
      <set comment="kpoint 78">
       <r>  -19.3673    1.0000 </r>
       <r>  -15.5590    1.0000 </r>
       <r>   -9.3525    1.0000 </r>
       <r>   -5.5126    1.0000 </r>
       <r>    1.2587    0.0000 </r>
       <r>    6.3751    0.0000 </r>
       <r>    7.4920    0.0000 </r>
       <r>    8.5993    0.0000 </r>
      </set>
      <set comment="kpoint 79">
       <r>  -19.1576    1.0000 </r>
       <r>  -15.8253    1.0000 </r>
       <r>   -9.3899    1.0000 </r>
       <r>   -5.3302    1.0000 </r>
       <r>    1.0180    0.0000 </r>
       <r>    6.3574    0.0000 </r>
       <r>    7.7835    0.0000 </r>
       <r>    8.8879    0.0000 </r>
      </set>
      <set comment="kpoint 80">
       <r>  -18.9487    1.0000 </r>
       <r>  -16.0820    1.0000 </r>
       <r>   -9.4215    1.0000 </r>
       <r>   -5.1629    1.0000 </r>
       <r>    0.8011    0.0000 </r>
       <r>    6.3420    0.0000 </r>
       <r>    8.0822    0.0000 </r>
       <r>    9.1828    0.0000 </r>
      </set>
      <set comment="kpoint 81">
       <r>  -18.7444    1.0000 </r>
       <r>  -16.3256    1.0000 </r>
       <r>   -9.4475    1.0000 </r>
       <r>   -5.0154    1.0000 </r>
       <r>    0.6129    0.0000 </r>
       <r>    6.3291    0.0000 </r>
       <r>    8.3878    0.0000 </r>
       <r>    9.4836    0.0000 </r>
      </set>
      <set comment="kpoint 82">
       <r>  -18.5510    1.0000 </r>
       <r>  -16.5496    1.0000 </r>
       <r>   -9.4677    1.0000 </r>
       <r>   -4.8929    1.0000 </r>
       <r>    0.4585    0.0000 </r>
       <r>    6.3191    0.0000 </r>
       <r>    8.6999    0.0000 </r>
       <r>    9.7900    0.0000 </r>
      </set>
      <set comment="kpoint 83">
       <r>  -18.3806    1.0000 </r>
       <r>  -16.7419    1.0000 </r>
       <r>   -9.4822    1.0000 </r>
       <r>   -4.8005    1.0000 </r>
       <r>    0.3433    0.0000 </r>
       <r>    6.3118    0.0000 </r>
       <r>    9.0180    0.0000 </r>
       <r>   10.1010    0.0000 </r>
      </set>
      <set comment="kpoint 84">
       <r>  -18.2557    1.0000 </r>
       <r>  -16.8800    1.0000 </r>
       <r>   -9.4909    1.0000 </r>
       <r>   -4.7428    1.0000 </r>
       <r>    0.2720    0.0000 </r>
       <r>    6.3074    0.0000 </r>
       <r>    9.3405    0.0000 </r>
       <r>   10.0219    0.0000 </r>
      </set>
      <set comment="kpoint 85">
       <r>  -18.2080    1.0000 </r>
       <r>  -16.9321    1.0000 </r>
       <r>   -9.4938    1.0000 </r>
       <r>   -4.7232    1.0000 </r>
       <r>    0.2478    0.0000 </r>
       <r>    6.3060    0.0000 </r>
       <r>    9.6150    0.0000 </r>
       <r>    9.7412    0.0000 </r>
      </set>
      <set comment="kpoint 86">
       <r>  -18.2080    1.0000 </r>
       <r>  -16.9321    1.0000 </r>
       <r>   -9.4938    1.0000 </r>
       <r>   -4.7232    1.0000 </r>
       <r>    0.2478    0.0000 </r>
       <r>    6.3060    0.0000 </r>
       <r>    9.6150    0.0000 </r>
       <r>    9.7412    0.0000 </r>
      </set>
      <set comment="kpoint 87">
       <r>  -18.2054    1.0000 </r>
       <r>  -16.9297    1.0000 </r>
       <r>   -9.5070    1.0000 </r>
       <r>   -4.7192    1.0000 </r>
       <r>    0.2468    0.0000 </r>
       <r>    6.3236    0.0000 </r>
       <r>    9.6184    0.0000 </r>
       <r>    9.7447    0.0000 </r>
      </set>
      <set comment="kpoint 88">
       <r>  -18.1977    1.0000 </r>
       <r>  -16.9223    1.0000 </r>
       <r>   -9.5463    1.0000 </r>
       <r>   -4.7072    1.0000 </r>
       <r>    0.2438    0.0000 </r>
       <r>    6.3762    0.0000 </r>
       <r>    9.6285    0.0000 </r>
       <r>    9.7552    0.0000 </r>
      </set>
      <set comment="kpoint 89">
       <r>  -18.1849    1.0000 </r>
       <r>  -16.9102    1.0000 </r>
       <r>   -9.6112    1.0000 </r>
       <r>   -4.6872    1.0000 </r>
       <r>    0.2386    0.0000 </r>
       <r>    6.4631    0.0000 </r>
       <r>    9.6454    0.0000 </r>
       <r>    9.7726    0.0000 </r>
      </set>
      <set comment="kpoint 90">
       <r>  -18.1669    1.0000 </r>
       <r>  -16.8932    1.0000 </r>
       <r>   -9.7006    1.0000 </r>
       <r>   -4.6591    1.0000 </r>
       <r>    0.2310    0.0000 </r>
       <r>    6.5833    0.0000 </r>
       <r>    9.6691    0.0000 </r>
       <r>    9.7970    0.0000 </r>
      </set>
      <set comment="kpoint 91">
       <r>  -18.1438    1.0000 </r>
       <r>  -16.8715    1.0000 </r>
       <r>   -9.8133    1.0000 </r>
       <r>   -4.6231    1.0000 </r>
       <r>    0.2209    0.0000 </r>
       <r>    6.7354    0.0000 </r>
       <r>    9.6994    0.0000 </r>
       <r>    9.8284    0.0000 </r>
      </set>
      <set comment="kpoint 92">
       <r>  -18.1155    1.0000 </r>
       <r>  -16.8451    1.0000 </r>
       <r>   -9.9476    1.0000 </r>
       <r>   -4.5790    1.0000 </r>
       <r>    0.2077    0.0000 </r>
       <r>    6.9177    0.0000 </r>
       <r>    9.7365    0.0000 </r>
       <r>    9.8667    0.0000 </r>
      </set>
      <set comment="kpoint 93">
       <r>  -18.0821    1.0000 </r>
       <r>  -16.8141    1.0000 </r>
       <r>  -10.1019    1.0000 </r>
       <r>   -4.5269    1.0000 </r>
       <r>    0.1912    0.0000 </r>
       <r>    7.1282    0.0000 </r>
       <r>    9.7802    0.0000 </r>
       <r>    9.9118    0.0000 </r>
      </set>
      <set comment="kpoint 94">
       <r>  -18.0436    1.0000 </r>
       <r>  -16.7786    1.0000 </r>
       <r>  -10.2742    1.0000 </r>
       <r>   -4.4667    1.0000 </r>
       <r>    0.1708    0.0000 </r>
       <r>    7.3649    0.0000 </r>
       <r>    9.8304    0.0000 </r>
       <r>    9.9638    0.0000 </r>
      </set>
      <set comment="kpoint 95">
       <r>  -17.9999    1.0000 </r>
       <r>  -16.7388    1.0000 </r>
       <r>  -10.4625    1.0000 </r>
       <r>   -4.3986    1.0000 </r>
       <r>    0.1458    0.0000 </r>
       <r>    7.6255    0.0000 </r>
       <r>    9.8872    0.0000 </r>
       <r>   10.0226    0.0000 </r>
      </set>
      <set comment="kpoint 96">
       <r>  -17.9511    1.0000 </r>
       <r>  -16.6949    1.0000 </r>
       <r>  -10.6650    1.0000 </r>
       <r>   -4.3224    1.0000 </r>
       <r>    0.1158    0.0000 </r>
       <r>    7.9076    0.0000 </r>
       <r>    9.9505    0.0000 </r>
       <r>   10.0881    0.0000 </r>
      </set>
      <set comment="kpoint 97">
       <r>  -17.8972    1.0000 </r>
       <r>  -16.6471    1.0000 </r>
       <r>  -10.8795    1.0000 </r>
       <r>   -4.2381    1.0000 </r>
       <r>    0.0799    0.0000 </r>
       <r>    8.2090    0.0000 </r>
       <r>   10.0201    0.0000 </r>
       <r>   10.1603    0.0000 </r>
      </set>
      <set comment="kpoint 98">
       <r>  -17.8382    1.0000 </r>
       <r>  -16.5958    1.0000 </r>
       <r>  -11.1041    1.0000 </r>
       <r>   -4.1459    1.0000 </r>
       <r>    0.0375    0.0000 </r>
       <r>    8.5270    0.0000 </r>
       <r>   10.0960    0.0000 </r>
       <r>   10.2390    0.0000 </r>
      </set>
      <set comment="kpoint 99">
       <r>  -17.7741    1.0000 </r>
       <r>  -16.5412    1.0000 </r>
       <r>  -11.3368    1.0000 </r>
       <r>   -4.0456    1.0000 </r>
       <r>   -0.0124    0.0000 </r>
       <r>    8.8593    0.0000 </r>
       <r>   10.1779    0.0000 </r>
       <r>   10.3710    0.0000 </r>
      </set>
      <set comment="kpoint 100">
       <r>  -17.7049    1.0000 </r>
       <r>  -16.4839    1.0000 </r>
       <r>  -11.5757    1.0000 </r>
       <r>   -3.9374    1.0000 </r>
       <r>   -0.0705    0.0000 </r>
       <r>    9.2029    0.0000 </r>
       <r>   10.2659    0.0000 </r>
       <r>   10.2796    0.0000 </r>
      </set>
      <set comment="kpoint 101">
       <r>  -17.6305    1.0000 </r>
       <r>  -16.4246    1.0000 </r>
       <r>  -11.8188    1.0000 </r>
       <r>   -3.8212    1.0000 </r>
       <r>   -0.1375    0.0000 </r>
       <r>    9.5548    0.0000 </r>
       <r>   10.1776    0.0000 </r>
       <r>   10.3596    0.0000 </r>
      </set>
      <set comment="kpoint 102">
       <r>  -17.5511    1.0000 </r>
       <r>  -16.3640    1.0000 </r>
       <r>  -12.0639    1.0000 </r>
       <r>   -3.6971    1.0000 </r>
       <r>   -0.2144    0.0000 </r>
       <r>    9.9114    0.0000 </r>
       <r>   10.0684    0.0000 </r>
       <r>   10.4588    0.0000 </r>
      </set>
      <set comment="kpoint 103">
       <r>  -17.4666    1.0000 </r>
       <r>  -16.3033    1.0000 </r>
       <r>  -12.3089    1.0000 </r>
       <r>   -3.5650    1.0000 </r>
       <r>   -0.3019    0.0000 </r>
       <r>    9.9559    0.0000 </r>
       <r>   10.2681    0.0000 </r>
       <r>   10.5633    0.0000 </r>
      </set>
      <set comment="kpoint 104">
       <r>  -17.3771    1.0000 </r>
       <r>  -16.2439    1.0000 </r>
       <r>  -12.5513    1.0000 </r>
       <r>   -3.4252    1.0000 </r>
       <r>   -0.4006    0.0000 </r>
       <r>    9.8441    0.0000 </r>
       <r>   10.6164    0.0000 </r>
       <r>   10.6726    0.0000 </r>
      </set>
      <set comment="kpoint 105">
       <r>  -17.2824    1.0000 </r>
       <r>  -16.1879    1.0000 </r>
       <r>  -12.7881    1.0000 </r>
       <r>   -3.2776    1.0000 </r>
       <r>   -0.5110    0.0000 </r>
       <r>    9.7367    0.0000 </r>
       <r>   10.7864    0.0000 </r>
       <r>   10.9404    0.0000 </r>
      </set>
      <set comment="kpoint 106">
       <r>  -17.1827    1.0000 </r>
       <r>  -16.1378    1.0000 </r>
       <r>  -13.0159    1.0000 </r>
       <r>   -3.1222    1.0000 </r>
       <r>   -0.6336    0.0000 </r>
       <r>    9.6368    0.0000 </r>
       <r>   10.9042    0.0000 </r>
       <r>   11.2080    0.0000 </r>
      </set>
      <set comment="kpoint 107">
       <r>  -17.0780    1.0000 </r>
       <r>  -16.0974    1.0000 </r>
       <r>  -13.2303    1.0000 </r>
       <r>   -2.9593    1.0000 </r>
       <r>   -0.7686    0.0000 </r>
       <r>    9.5470    0.0000 </r>
       <r>   11.0252    0.0000 </r>
       <r>   11.3754    0.0000 </r>
      </set>
      <set comment="kpoint 108">
       <r>  -16.9683    1.0000 </r>
       <r>  -16.0713    1.0000 </r>
       <r>  -13.4261    1.0000 </r>
       <r>   -2.7890    1.0000 </r>
       <r>   -0.9160    0.0000 </r>
       <r>    9.4694    0.0000 </r>
       <r>   11.1487    0.0000 </r>
       <r>   11.4688    0.0000 </r>
      </set>
      <set comment="kpoint 109">
       <r>  -16.8536    1.0000 </r>
       <r>  -16.0652    1.0000 </r>
       <r>  -13.5970    1.0000 </r>
       <r>   -2.6112    1.0000 </r>
       <r>   -1.0758    0.0000 </r>
       <r>    9.4053    0.0000 </r>
       <r>   11.2737    0.0000 </r>
       <r>   11.5453    0.0000 </r>
      </set>
      <set comment="kpoint 110">
       <r>  -16.7339    1.0000 </r>
       <r>  -16.0853    1.0000 </r>
       <r>  -13.7361    1.0000 </r>
       <r>   -2.4262    1.0000 </r>
       <r>   -1.2476    0.0000 </r>
       <r>    9.3555    0.0000 </r>
       <r>   11.3989    0.0000 </r>
       <r>   11.6449    0.0000 </r>
      </set>
      <set comment="kpoint 111">
       <r>  -16.6092    1.0000 </r>
       <r>  -16.1372    1.0000 </r>
       <r>  -13.8375    1.0000 </r>
       <r>   -2.2341    1.0000 </r>
       <r>   -1.4309    0.0000 </r>
       <r>    9.3206    0.0000 </r>
       <r>   11.5228    0.0000 </r>
       <r>   11.7362    0.0000 </r>
      </set>
      <set comment="kpoint 112">
       <r>  -16.4796    1.0000 </r>
       <r>  -16.2240    1.0000 </r>
       <r>  -13.8978    1.0000 </r>
       <r>   -2.0350    1.0000 </r>
       <r>   -1.6252    0.0000 </r>
       <r>    9.3001    0.0000 </r>
       <r>   11.6436    0.0000 </r>
       <r>   11.7953    0.0000 </r>
      </set>
      <set comment="kpoint 113">
       <r>  -16.3450    1.0000 </r>
       <r>  -16.3450    1.0000 </r>
       <r>  -13.9172    1.0000 </r>
       <r>   -1.8294    0.5000 </r>
       <r>   -1.8294    0.5000 </r>
       <r>    9.2936    0.0000 </r>
       <r>   11.7590    0.0000 </r>
       <r>   11.7590    0.0000 </r>
      </set>
      <set comment="kpoint 114">
       <r>  -16.3450    1.0000 </r>
       <r>  -16.3450    1.0000 </r>
       <r>  -13.9172    1.0000 </r>
       <r>   -1.8294    0.5000 </r>
       <r>   -1.8294    0.5000 </r>
       <r>    9.2936    0.0000 </r>
       <r>   11.7590    0.0000 </r>
       <r>   11.7590    0.0000 </r>
      </set>
      <set comment="kpoint 115">
       <r>  -16.4933    1.0000 </r>
       <r>  -16.2081    1.0000 </r>
       <r>  -13.9001    1.0000 </r>
       <r>   -2.0389    1.0000 </r>
       <r>   -1.6211    0.0000 </r>
       <r>    9.2994    0.0000 </r>
       <r>   11.5821    0.0000 </r>
       <r>   11.8648    0.0000 </r>
      </set>
      <set comment="kpoint 116">
       <r>  -16.6654    1.0000 </r>
       <r>  -16.0665    1.0000 </r>
       <r>  -13.8522    1.0000 </r>
       <r>   -2.2566    1.0000 </r>
       <r>   -1.4063    0.0000 </r>
       <r>    9.3157    0.0000 </r>
       <r>   11.3219    0.0000 </r>
       <r>   11.9604    0.0000 </r>
      </set>
      <set comment="kpoint 117">
       <r>  -16.8556    1.0000 </r>
       <r>  -15.9203    1.0000 </r>
       <r>  -13.7791    1.0000 </r>
       <r>   -2.4814    1.0000 </r>
       <r>   -1.1856    0.0000 </r>
       <r>    9.3399    0.0000 </r>
       <r>   11.0258    0.0000 </r>
       <r>   12.0435    0.0000 </r>
      </set>
      <set comment="kpoint 118">
       <r>  -17.0590    1.0000 </r>
       <r>  -15.7694    1.0000 </r>
       <r>  -13.6856    1.0000 </r>
       <r>   -2.7123    1.0000 </r>
       <r>   -0.9590    0.0000 </r>
       <r>    9.3687    0.0000 </r>
       <r>   10.7134    0.0000 </r>
       <r>   12.1118    0.0000 </r>
      </set>
      <set comment="kpoint 119">
       <r>  -17.2715    1.0000 </r>
       <r>  -15.6138    1.0000 </r>
       <r>  -13.5756    1.0000 </r>
       <r>   -2.9484    1.0000 </r>
       <r>   -0.7268    0.0000 </r>
       <r>    9.3972    0.0000 </r>
       <r>   10.3945    0.0000 </r>
       <r>   12.1639    0.0000 </r>
      </set>
      <set comment="kpoint 120">
       <r>  -17.4900    1.0000 </r>
       <r>  -15.4537    1.0000 </r>
       <r>  -13.4520    1.0000 </r>
       <r>   -3.1887    1.0000 </r>
       <r>   -0.4891    0.0000 </r>
       <r>    9.4188    0.0000 </r>
       <r>   10.0730    0.0000 </r>
       <r>   12.1986    0.0000 </r>
      </set>
      <set comment="kpoint 121">
       <r>  -17.7121    1.0000 </r>
       <r>  -15.2891    1.0000 </r>
       <r>  -13.3172    1.0000 </r>
       <r>   -3.4324    1.0000 </r>
       <r>   -0.2462    0.0000 </r>
       <r>    9.4247    0.0000 </r>
       <r>    9.7515    0.0000 </r>
       <r>   12.2163    0.0000 </r>
      </set>
      <set comment="kpoint 122">
       <r>  -17.9361    1.0000 </r>
       <r>  -15.1199    1.0000 </r>
       <r>  -13.1728    1.0000 </r>
       <r>   -3.6784    1.0000 </r>
       <r>    0.0018    0.0000 </r>
       <r>    9.4040    0.0000 </r>
       <r>    9.4320    0.0000 </r>
       <r>   11.4747    0.0000 </r>
      </set>
      <set comment="kpoint 123">
       <r>  -18.1606    1.0000 </r>
       <r>  -14.9463    1.0000 </r>
       <r>  -13.0203    1.0000 </r>
       <r>   -3.9261    1.0000 </r>
       <r>    0.2547    0.0000 </r>
       <r>    9.1161    0.0000 </r>
       <r>    9.3460    0.0000 </r>
       <r>   11.1098    0.0000 </r>
      </set>
      <set comment="kpoint 124">
       <r>  -18.3846    1.0000 </r>
       <r>  -14.7683    1.0000 </r>
       <r>  -12.8606    1.0000 </r>
       <r>   -4.1745    1.0000 </r>
       <r>    0.5123    0.0000 </r>
       <r>    8.8044    0.0000 </r>
       <r>    9.2437    0.0000 </r>
       <r>   10.7789    0.0000 </r>
      </set>
      <set comment="kpoint 125">
       <r>  -18.6072    1.0000 </r>
       <r>  -14.5859    1.0000 </r>
       <r>  -12.6947    1.0000 </r>
       <r>   -4.4231    1.0000 </r>
       <r>    0.7743    0.0000 </r>
       <r>    8.4975    0.0000 </r>
       <r>    9.0981    0.0000 </r>
       <r>   10.4608    0.0000 </r>
      </set>
      <set comment="kpoint 126">
       <r>  -18.8277    1.0000 </r>
[...]
       <r>  -10.2639    1.0000 </r>
       <r>   -7.0885    1.0000 </r>
       <r>   -6.5514    1.0000 </r>
       <r>    2.0722    0.0000 </r>
       <r>    3.2011    0.0000 </r>
       <r>    4.0100    0.0000 </r>
       <r>    7.5838    0.0000 </r>
      </set>
      <set comment="kpoint 159">
       <r>  -23.5933    1.0000 </r>
       <r>  -10.3367    1.0000 </r>
       <r>   -6.8933    1.0000 </r>
       <r>   -6.4327    1.0000 </r>
       <r>    1.9972    0.0000 </r>
       <r>    3.1264    0.0000 </r>
       <r>    3.9350    0.0000 </r>
       <r>    7.5477    0.0000 </r>
      </set>
      <set comment="kpoint 160">
       <r>  -23.6471    1.0000 </r>
       <r>  -10.4026    1.0000 </r>
       <r>   -6.7100    1.0000 </r>
       <r>   -6.3236    1.0000 </r>
       <r>    1.9294    0.0000 </r>
       <r>    3.0588    0.0000 </r>
       <r>    3.8672    0.0000 </r>
       <r>    7.5166    0.0000 </r>
      </set>
      <set comment="kpoint 161">
       <r>  -23.6953    1.0000 </r>
       <r>  -10.4616    1.0000 </r>
       <r>   -6.5402    1.0000 </r>
       <r>   -6.2248    1.0000 </r>
       <r>    1.8687    0.0000 </r>
       <r>    2.9983    0.0000 </r>
       <r>    3.8065    0.0000 </r>
       <r>    7.4902    0.0000 </r>
      </set>
      <set comment="kpoint 162">
       <r>  -23.7378    1.0000 </r>
       <r>  -10.5137    1.0000 </r>
       <r>   -6.3853    1.0000 </r>
       <r>   -6.1367    1.0000 </r>
       <r>    1.8151    0.0000 </r>
       <r>    2.9449    0.0000 </r>
       <r>    3.7529    0.0000 </r>
       <r>    7.4681    0.0000 </r>
      </set>
      <set comment="kpoint 163">
       <r>  -23.7746    1.0000 </r>
       <r>  -10.5589    1.0000 </r>
       <r>   -6.2470    1.0000 </r>
       <r>   -6.0595    1.0000 </r>
       <r>    1.7687    0.0000 </r>
       <r>    2.8986    0.0000 </r>
       <r>    3.7065    0.0000 </r>
       <r>    7.4500    0.0000 </r>
      </set>
      <set comment="kpoint 164">
       <r>  -23.8058    1.0000 </r>
       <r>  -10.5971    1.0000 </r>
       <r>   -6.1268    1.0000 </r>
       <r>   -5.9936    1.0000 </r>
       <r>    1.7295    0.0000 </r>
       <r>    2.8594    0.0000 </r>
       <r>    3.6673    0.0000 </r>
       <r>    7.4355    0.0000 </r>
      </set>
      <set comment="kpoint 165">
       <r>  -23.8314    1.0000 </r>
       <r>  -10.6284    1.0000 </r>
       <r>   -6.0262    1.0000 </r>
       <r>   -5.9393    1.0000 </r>
       <r>    1.6974    0.0000 </r>
       <r>    2.8273    0.0000 </r>
       <r>    3.6352    0.0000 </r>
       <r>    7.4242    0.0000 </r>
      </set>
      <set comment="kpoint 166">
       <r>  -23.8512    1.0000 </r>
       <r>  -10.6528    1.0000 </r>
       <r>   -5.9464    1.0000 </r>
       <r>   -5.8968    1.0000 </r>
       <r>    1.6724    0.0000 </r>
       <r>    2.8024    0.0000 </r>
       <r>    3.6102    0.0000 </r>
       <r>    7.4158    0.0000 </r>
      </set>
      <set comment="kpoint 167">
       <r>  -23.8654    1.0000 </r>
       <r>  -10.6702    1.0000 </r>
       <r>   -5.8887    1.0000 </r>
       <r>   -5.8664    1.0000 </r>
       <r>    1.6545    0.0000 </r>
       <r>    2.7846    0.0000 </r>
       <r>    3.5924    0.0000 </r>
       <r>    7.4101    0.0000 </r>
      </set>
      <set comment="kpoint 168">
       <r>  -23.8739    1.0000 </r>
       <r>  -10.6806    1.0000 </r>
       <r>   -5.8536    1.0000 </r>
       <r>   -5.8480    1.0000 </r>
       <r>    1.6438    0.0000 </r>
       <r>    2.7739    0.0000 </r>
       <r>    3.5817    0.0000 </r>
       <r>    7.4068    0.0000 </r>
      </set>
      <set comment="kpoint 169">
       <r>  -23.8767    1.0000 </r>
       <r>  -10.6841    1.0000 </r>
       <r>   -5.8419    1.0000 </r>
       <r>   -5.8419    1.0000 </r>
       <r>    1.6403    0.0000 </r>
       <r>    2.7703    0.0000 </r>
       <r>    3.5781    0.0000 </r>
       <r>    8.0124    0.0000 </r>
      </set>
     </set>
    </set>
   </array>
  </eigenvalues>
  <separator name="orbital magnetization" >
   <v name="MAGDIPOLOUT">      0.00000000      0.00000000      0.00000000</v>
  </separator>
  <dos>
   <i name="efermi">     -1.82937702 </i>
   <total>
    <array>
     <dimension dim="1">gridpoints</dimension>
     <dimension dim="2">spin</dimension>
     <field>energy</field>
     <field>total</field>
     <field>integrated</field>
     <set>
      <set comment="spin 1">
       <r>   -25.6820     0.0000     0.0000 </r>
       <r>   -25.5497     0.0000     0.0000 </r>
       <r>   -25.4173     0.0000     0.0000 </r>
       <r>   -25.2850     0.0000     0.0000 </r>
       <r>   -25.1526     0.0000     0.0000 </r>
       <r>   -25.0203     0.0000     0.0000 </r>
       <r>   -24.8880     0.0000     0.0000 </r>
       <r>   -24.7556     0.0000     0.0000 </r>
       <r>   -24.6233     0.0000     0.0000 </r>
       <r>   -24.4909     0.0000     0.0000 </r>
       <r>   -24.3586     0.0000     0.0000 </r>
       <r>   -24.2262     0.0000     0.0000 </r>
       <r>   -24.0939     0.0000     0.0000 </r>
       <r>   -23.9615     0.0004     0.0001 </r>
       <r>   -23.8292     0.0935     0.0124 </r>
       <r>   -23.6969     0.2459     0.0450 </r>
       <r>   -23.5645     0.3849     0.0959 </r>
       <r>   -23.4322     0.1620     0.1173 </r>
       <r>   -23.2998     0.4096     0.1716 </r>
       <r>   -23.1675     0.2778     0.2083 </r>
       <r>   -23.0351     0.1520     0.2284 </r>
       <r>   -22.9028     0.2459     0.2610 </r>
       <r>   -22.7705     0.5857     0.3385 </r>
       <r>   -22.6381     0.0737     0.3483 </r>
       <r>   -22.5058     0.2135     0.3765 </r>
       <r>   -22.3734     0.3077     0.4172 </r>
       <r>   -22.2411     0.4137     0.4720 </r>
       <r>   -22.1087     0.3979     0.5246 </r>
       <r>   -21.9764     0.0086     0.5258 </r>
       <r>   -21.8441     0.2643     0.5608 </r>
       <r>   -21.7117     0.3473     0.6067 </r>
       <r>   -21.5794     0.4980     0.6726 </r>
       <r>   -21.4470     0.2666     0.7079 </r>
       <r>   -21.3147     0.2946     0.7469 </r>
       <r>   -21.1823     0.0001     0.7469 </r>
       <r>   -21.0500     0.1879     0.7718 </r>
       <r>   -20.9177     0.6389     0.8563 </r>
       <r>   -20.7853     0.5175     0.9248 </r>
       <r>   -20.6530     0.0551     0.9321 </r>
       <r>   -20.5206     0.3164     0.9740 </r>
       <r>   -20.3883     0.2432     1.0062 </r>
       <r>   -20.2559     0.0004     1.0062 </r>
       <r>   -20.1236     0.2885     1.0444 </r>
       <r>   -19.9913     0.8232     1.1534 </r>
       <r>   -19.8589     0.2434     1.1856 </r>
       <r>   -19.7266     0.3235     1.2284 </r>
       <r>   -19.5942     0.0008     1.2285 </r>
       <r>   -19.4619     0.4227     1.2844 </r>
       <r>   -19.3295     0.1364     1.3025 </r>
       <r>   -19.1972     0.2314     1.3331 </r>
       <r>   -19.0648     0.5169     1.4015 </r>
       <r>   -18.9325     0.6398     1.4862 </r>
       <r>   -18.8002     0.1671     1.5083 </r>
       <r>   -18.6678     0.4033     1.5617 </r>
       <r>   -18.5355     0.0011     1.5618 </r>
       <r>   -18.4031     0.4256     1.6181 </r>
       <r>   -18.2708     0.1444     1.6372 </r>
       <r>   -18.1384     0.6966     1.7294 </r>
       <r>   -18.0061     0.6843     1.8200 </r>
       <r>   -17.8738     0.4271     1.8765 </r>
       <r>   -17.7414     0.0001     1.8765 </r>
       <r>   -17.6091     0.0000     1.8765 </r>
       <r>   -17.4767     0.0007     1.8766 </r>
       <r>   -17.3444     0.2295     1.9070 </r>
       <r>   -17.2120     0.2040     1.9340 </r>
       <r>   -17.0797     0.4050     1.9876 </r>
       <r>   -16.9474     0.0471     1.9938 </r>
       <r>   -16.8150     0.0976     2.0067 </r>
       <r>   -16.6827     0.2610     2.0413 </r>
       <r>   -16.5503     0.4672     2.1031 </r>
       <r>   -16.4180     0.1107     2.1178 </r>
       <r>   -16.2856     0.2254     2.1476 </r>
       <r>   -16.1533     0.7792     2.2507 </r>
       <r>   -16.0210     0.1734     2.2737 </r>
       <r>   -15.8886     0.1960     2.2996 </r>
       <r>   -15.7563     0.9769     2.4289 </r>
       <r>   -15.6239     0.0707     2.4383 </r>
       <r>   -15.4916     0.0079     2.4393 </r>
       <r>   -15.3592     0.5312     2.5096 </r>
       <r>   -15.2269     0.5585     2.5835 </r>
       <r>   -15.0946     0.0224     2.5865 </r>
       <r>   -14.9622     0.4435     2.6452 </r>
       <r>   -14.8299     0.3936     2.6973 </r>
       <r>   -14.6975     0.0023     2.6976 </r>
       <r>   -14.5652     0.2184     2.7265 </r>
       <r>   -14.4328     0.4289     2.7833 </r>
       <r>   -14.3005     0.1952     2.8091 </r>
       <r>   -14.1681     0.4959     2.8747 </r>
       <r>   -14.0358     0.0604     2.8827 </r>
       <r>   -13.9035     0.0612     2.8908 </r>
       <r>   -13.7711     0.4405     2.9491 </r>
       <r>   -13.6388     0.2242     2.9788 </r>
       <r>   -13.5064     0.5382     3.0500 </r>
       <r>   -13.3741     0.5041     3.1167 </r>
       <r>   -13.2417     0.0042     3.1173 </r>
       <r>   -13.1094     0.1800     3.1411 </r>
       <r>   -12.9771     0.6728     3.2301 </r>
       <r>   -12.8447     0.5454     3.3023 </r>
       <r>   -12.7124     0.0010     3.3025 </r>
       <r>   -12.5800     0.0583     3.3102 </r>
       <r>   -12.4477     0.4192     3.3657 </r>
       <r>   -12.3153     0.3694     3.4145 </r>
       <r>   -12.1830     0.9851     3.5449 </r>
       <r>   -12.0507     0.4401     3.6031 </r>
       <r>   -11.9183     0.2468     3.6358 </r>
       <r>   -11.7860     0.0000     3.6358 </r>
       <r>   -11.6536     0.0000     3.6358 </r>
       <r>   -11.5213     0.0089     3.6370 </r>
       <r>   -11.3889     1.2617     3.8040 </r>
       <r>   -11.2566     0.6549     3.8906 </r>
       <r>   -11.1243     0.3136     3.9321 </r>
       <r>   -10.9919     0.2106     3.9600 </r>
       <r>   -10.8596     0.4737     4.0227 </r>
       <r>   -10.7272     0.1625     4.0442 </r>
       <r>   -10.5949     0.6367     4.1285 </r>
       <r>   -10.4625     0.3939     4.1806 </r>
       <r>   -10.3302     1.0456     4.3190 </r>
       <r>   -10.1978     0.7800     4.4222 </r>
       <r>   -10.0655     0.5690     4.4975 </r>
       <r>    -9.9332     1.0638     4.6383 </r>
       <r>    -9.8008     0.4555     4.6986 </r>
       <r>    -9.6685     1.2139     4.8592 </r>
       <r>    -9.5361     0.6454     4.9446 </r>
       <r>    -9.4038     1.2304     5.1075 </r>
       <r>    -9.2714     0.5005     5.1737 </r>
       <r>    -9.1391     1.3057     5.3465 </r>
       <r>    -9.0068     0.6925     5.4382 </r>
       <r>    -8.8744     0.1908     5.4634 </r>
       <r>    -8.7421     1.3749     5.6454 </r>
       <r>    -8.6097     0.6453     5.7308 </r>
       <r>    -8.4774     0.2901     5.7692 </r>
       <r>    -8.3450     0.4357     5.8268 </r>
       <r>    -8.2127     1.1402     5.9777 </r>
       <r>    -8.0804     0.3371     6.0223 </r>
       <r>    -7.9480     0.6028     6.1021 </r>
       <r>    -7.8157     0.0790     6.1126 </r>
       <r>    -7.6833     1.3210     6.2874 </r>
       <r>    -7.5510     0.7821     6.3909 </r>
       <r>    -7.4186     0.0782     6.4012 </r>
       <r>    -7.2863     0.1725     6.4241 </r>
       <r>    -7.1540     0.5384     6.4953 </r>
       <r>    -7.0216     0.8053     6.6019 </r>
       <r>    -6.8893     0.8953     6.7204 </r>
       <r>    -6.7569     0.2066     6.7477 </r>
       <r>    -6.6246     0.7156     6.8424 </r>
       <r>    -6.4922     0.0602     6.8504 </r>
       <r>    -6.3599     0.3261     6.8936 </r>
       <r>    -6.2276     0.3329     6.9376 </r>
       <r>    -6.0952     1.1364     7.0880 </r>
       <r>    -5.9629     0.4395     7.1462 </r>
       <r>    -5.8305     0.5828     7.2233 </r>
       <r>    -5.6982     0.0398     7.2286 </r>
       <r>    -5.5658     0.4614     7.2897 </r>
       <r>    -5.4335     0.0969     7.3025 </r>
       <r>    -5.3011     0.0005     7.3025 </r>
       <r>    -5.1688     0.2315     7.3332 </r>
       <r>    -5.0365     0.7346     7.4304 </r>
       <r>    -4.9041     0.6404     7.5151 </r>
       <r>    -4.7718     0.6538     7.6017 </r>
       <r>    -4.6394     0.3966     7.6542 </r>
       <r>    -4.5071     0.0016     7.6544 </r>
       <r>    -4.3747     0.2095     7.6821 </r>
       <r>    -4.2424     0.0709     7.6915 </r>
       <r>    -4.1101     0.4421     7.7500 </r>
       <r>    -3.9777     0.6626     7.8377 </r>
       <r>    -3.8454     0.2936     7.8765 </r>
       <r>    -3.7130     0.0001     7.8765 </r>
       <r>    -3.5807     0.0000     7.8765 </r>
       <r>    -3.4483     0.0717     7.8860 </r>
       <r>    -3.3160     0.2079     7.9135 </r>
       <r>    -3.1837     0.0003     7.9136 </r>
       <r>    -3.0513     0.0001     7.9136 </r>
       <r>    -2.9190     0.3219     7.9562 </r>
       <r>    -2.7866     0.2377     7.9877 </r>
       <r>    -2.6543     0.0000     7.9877 </r>
       <r>    -2.5219     0.0000     7.9877 </r>
       <r>    -2.3896     0.0000     7.9877 </r>
       <r>    -2.2573     0.0000     7.9877 </r>
       <r>    -2.1249     0.0000     7.9877 </r>
       <r>    -1.9926     0.0000     7.9877 </r>
       <r>    -1.8602     0.0357     7.9924 </r>
       <r>    -1.7279     0.1505     8.0123 </r>
       <r>    -1.5955     0.0004     8.0123 </r>
       <r>    -1.4632     0.0000     8.0123 </r>
       <r>    -1.3309     0.0000     8.0123 </r>
       <r>    -1.1985     0.0000     8.0123 </r>
       <r>    -1.0662     0.0000     8.0123 </r>
       <r>    -0.9338     0.0000     8.0123 </r>
       <r>    -0.8015     0.0921     8.0245 </r>
       <r>    -0.6691     0.4660     8.0862 </r>
       <r>    -0.5368     0.0016     8.0864 </r>
       <r>    -0.4044     0.1277     8.1033 </r>
       <r>    -0.2721     0.1521     8.1235 </r>
       <r>    -0.1398     0.0000     8.1235 </r>
       <r>    -0.0074     0.0000     8.1235 </r>
       <r>     0.1249     0.3404     8.1685 </r>
       <r>     0.2573     1.0389     8.3060 </r>
       <r>     0.3896     0.7295     8.4025 </r>
       <r>     0.5220     0.2699     8.4383 </r>
       <r>     0.6543     0.0021     8.4386 </r>
       <r>     0.7866     0.4903     8.5034 </r>
       <r>     0.9190     0.3413     8.5486 </r>
       <r>     1.0513     0.0060     8.5494 </r>
       <r>     1.1837     0.3163     8.5913 </r>
       <r>     1.3160     0.2433     8.6235 </r>
       <r>     1.4484     0.3853     8.6745 </r>
       <r>     1.5807     0.7354     8.7718 </r>
       <r>     1.7130     0.1063     8.7858 </r>
       <r>     1.8454     0.2195     8.8149 </r>
       <r>     1.9777     0.2501     8.8480 </r>
       <r>     2.1101     0.6916     8.9395 </r>
       <r>     2.2424     0.3906     8.9912 </r>
       <r>     2.3748     0.5343     9.0619 </r>
       <r>     2.5071     0.1421     9.0807 </r>
       <r>     2.6394     0.6785     9.1705 </r>
       <r>     2.7718     0.1748     9.1936 </r>
       <r>     2.9041     0.8536     9.3066 </r>
       <r>     3.0365     1.0691     9.4481 </r>
       <r>     3.1688     0.4433     9.5068 </r>
       <r>     3.3012     0.4038     9.5602 </r>
       <r>     3.4335     0.1050     9.5741 </r>
       <r>     3.5658     0.9130     9.6949 </r>
       <r>     3.6982     1.0440     9.8331 </r>
       <r>     3.8305     0.8481     9.9454 </r>
       <r>     3.9629     0.7324    10.0423 </r>
       <r>     4.0952     1.0136    10.1764 </r>
       <r>     4.2276     0.7606    10.2771 </r>
       <r>     4.3599     0.8721    10.3925 </r>
       <r>     4.4923     0.9151    10.5136 </r>
       <r>     4.6246     0.2935    10.5525 </r>
       <r>     4.7569     1.4379    10.7428 </r>
       <r>     4.8893     1.2157    10.9036 </r>
       <r>     5.0216     0.2617    10.9383 </r>
       <r>     5.1540     0.2048    10.9654 </r>
       <r>     5.2863     1.1135    11.1127 </r>
       <r>     5.4187     0.7318    11.2096 </r>
       <r>     5.5510     1.2786    11.3788 </r>
       <r>     5.6833     1.1876    11.5360 </r>
       <r>     5.8157     0.5171    11.6044 </r>
       <r>     5.9480     0.9274    11.7272 </r>
       <r>     6.0804     0.3301    11.7708 </r>
       <r>     6.2127     0.1549    11.7913 </r>
       <r>     6.3451     0.6913    11.8828 </r>
       <r>     6.4774     2.4640    12.2089 </r>
       <r>     6.6097     0.9893    12.3398 </r>
       <r>     6.7421     1.6083    12.5527 </r>
       <r>     6.8744     1.4740    12.7478 </r>
       <r>     7.0068     1.0600    12.8881 </r>
       <r>     7.1391     0.5134    12.9560 </r>
       <r>     7.2715     0.2941    12.9949 </r>
       <r>     7.4038     1.5268    13.1970 </r>
       <r>     7.5361     1.2852    13.3671 </r>
       <r>     7.6685     2.2440    13.6641 </r>
       <r>     7.8008     1.7797    13.8996 </r>
       <r>     7.9332     1.1115    14.0467 </r>
       <r>     8.0655     0.4651    14.1082 </r>
       <r>     8.1979     0.0479    14.1146 </r>
       <r>     8.3302     0.7002    14.2073 </r>
       <r>     8.4626     0.8807    14.3238 </r>
       <r>     8.5949     0.9096    14.4442 </r>
       <r>     8.7272     0.2821    14.4815 </r>
       <r>     8.8596     0.4666    14.5433 </r>
       <r>     8.9919     0.7139    14.6377 </r>
       <r>     9.1243     1.3153    14.8118 </r>
       <r>     9.2566     0.9034    14.9314 </r>
       <r>     9.3890     0.9081    15.0515 </r>
       <r>     9.5213     1.2395    15.2156 </r>
       <r>     9.6536     0.6843    15.3061 </r>
       <r>     9.7860     0.5782    15.3827 </r>
       <r>     9.9183     0.5874    15.4604 </r>
       <r>    10.0507     0.9823    15.5904 </r>
       <r>    10.1830     0.3896    15.6420 </r>
       <r>    10.3154     0.0001    15.6420 </r>
       <r>    10.4477     0.0009    15.6421 </r>
       <r>    10.5800     0.4887    15.7068 </r>
       <r>    10.7124     1.0892    15.8509 </r>
       <r>    10.8447     0.1004    15.8642 </r>
       <r>    10.9771     0.0044    15.8648 </r>
       <r>    11.1094     0.2598    15.8992 </r>
       <r>    11.2418     0.0157    15.9012 </r>
       <r>    11.3741     0.0000    15.9012 </r>
       <r>    11.5064     0.0000    15.9012 </r>
       <r>    11.6388     0.0001    15.9012 </r>
       <r>    11.7711     0.1182    15.9169 </r>
       <r>    11.9035     0.1870    15.9416 </r>
       <r>    12.0358     0.4400    15.9999 </r>
       <r>    12.1682     0.0009    16.0000 </r>
       <r>    12.3005     0.0000    16.0000 </r>
       <r>    12.4328     0.0000    16.0000 </r>
       <r>    12.5652     0.0000    16.0000 </r>
       <r>    12.6975     0.0000    16.0000 </r>
       <r>    12.8299     0.0000    16.0000 </r>
       <r>    12.9622     0.0000    16.0000 </r>
       <r>    13.0946     0.0000    16.0000 </r>
       <r>    13.2269     0.0000    16.0000 </r>
       <r>    13.3593     0.0000    16.0000 </r>
       <r>    13.4916     0.0000    16.0000 </r>
       <r>    13.6239     0.0000    16.0000 </r>
       <r>    13.7563     0.0000    16.0000 </r>
       <r>    13.8886     0.0000    16.0000 </r>
       <r>    14.0210     0.0000    16.0000 </r>
      </set>
     </set>
    </array>
   </total>
  </dos>
 </calculation>
 <structure name="finalpos" >
  <crystal>
   <varray name="basis" >
    <v>       2.46813324       0.00000000       0.00000000 </v>
    <v>       1.23406662       2.13746609       0.00000000 </v>
    <v>       0.00000000       0.00000000      12.00000000 </v>
   </varray>
   <i name="volume">     63.30661323 </i>
   <varray name="rec_basis" >
    <v>       0.40516451      -0.23392184       0.00000000 </v>
    <v>       0.00000000       0.46784368       0.00000000 </v>
    <v>       0.00000000       0.00000000       0.08333333 </v>
   </varray>
  </crystal>
  <varray name="positions" >
   <v>       0.00000000       0.00000000       0.50000000 </v>
   <v>       0.33333334       0.33333334       0.50000000 </v>
  </varray>
 </structure>
</modeling>
